22
Properties=species:S:1:pos:R:3:forces:R:3 source=etkdg-seed0 energy=-123.48901350038713 pbc="F F F"
C       -3.55276748       0.10732387      -0.10591039       0.21783145      -0.00658114       0.00650029
C       -2.90056748      -1.06717604       0.26040415       0.36222938       0.21679920      -0.05954299
C       -1.50416780      -1.10824410       0.30232376      -0.41654798      -0.06221292       0.00755582
C       -0.73551790       0.02222981      -0.02191887      -0.72579468       0.02191821      -0.02163720
C        0.73551845      -0.02220814       0.02193087       0.72578905      -0.02192673       0.02163577
C        1.41315633      -0.44358447       1.17829419       0.41081999      -0.03587737       0.08600111
C        2.80950502      -0.48554401       1.22103454      -0.34416660       0.09132423      -0.23439037
C        3.55276714      -0.10733975       0.10590136      -0.21783492       0.00660056      -0.00653738
C        2.90134874       0.31301105      -1.05080205      -0.36237700      -0.07000169       0.21341125
C        1.50494771       0.35544398      -1.09130072       0.41660640       0.01086667      -0.06136023
C       -1.41393582       1.19641285      -0.38930187      -0.41087039       0.08719061      -0.03222005
C       -2.81028632       1.23969836      -0.43064304       0.34430634      -0.23809764       0.08059195
H       -4.63852456       0.14011760      -0.13828071       0.33125983      -0.00999859       0.00987445
H       -3.47640253      -1.95400998       0.51150549       0.17115771       0.27956102      -0.07742710
H       -1.01406078      -2.03928556       0.58000494      -0.08180924       0.41679713      -0.11224352
H        0.85150995      -0.73238022       2.06446533       0.11361309       0.12568495      -0.40533359
H        3.31423154      -0.81119529       2.12674840      -0.14889613       0.10031513      -0.28502739
H        4.63852369      -0.14015067       0.13826239      -0.33124972       0.01001028      -0.00987251
H        3.47779888       0.60598583      -1.92429126      -0.17135147      -0.09061813       0.27544978
H        1.01547327       0.67599916      -2.00880242       0.08151531      -0.13158587       0.41116436
H       -0.85292167       2.09570524      -0.63564611      -0.11332080      -0.41089615       0.10642194
H       -3.31562839       2.15919046      -0.71397798       0.14909037      -0.28927176       0.08698562
22
Properties=species:S:1:pos:R:3:forces:R:3 source=etkdg-seed1 energy=-123.48901350038713 pbc="F F F"
C       -3.55276748       0.10732387      -0.10591039       0.21783145      -0.00658114       0.00650029
C       -2.90056748      -1.06717604       0.26040415       0.36222938       0.21679920      -0.05954299
C       -1.50416780      -1.10824410       0.30232376      -0.41654798      -0.06221292       0.00755582
C       -0.73551790       0.02222981      -0.02191887      -0.72579468       0.02191821      -0.02163720
C        0.73551845      -0.02220814       0.02193087       0.72578905      -0.02192673       0.02163577
C        1.41315633      -0.44358447       1.17829419       0.41081999      -0.03587737       0.08600111
C        2.80950502      -0.48554401       1.22103454      -0.34416660       0.09132423      -0.23439037
C        3.55276714      -0.10733975       0.10590136      -0.21783492       0.00660056      -0.00653738
C        2.90134874       0.31301105      -1.05080205      -0.36237700      -0.07000169       0.21341125
C        1.50494771       0.35544398      -1.09130072       0.41660640       0.01086667      -0.06136023
C       -1.41393582       1.19641285      -0.38930187      -0.41087039       0.08719061      -0.03222005
C       -2.81028632       1.23969836      -0.43064304       0.34430634      -0.23809764       0.08059195
H       -4.63852456       0.14011760      -0.13828071       0.33125983      -0.00999859       0.00987445
H       -3.47640253      -1.95400998       0.51150549       0.17115771       0.27956102      -0.07742710
H       -1.01406078      -2.03928556       0.58000494      -0.08180924       0.41679713      -0.11224352
H        0.85150995      -0.73238022       2.06446533       0.11361309       0.12568495      -0.40533359
H        3.31423154      -0.81119529       2.12674840      -0.14889613       0.10031513      -0.28502739
H        4.63852369      -0.14015067       0.13826239      -0.33124972       0.01001028      -0.00987251
H        3.47779888       0.60598583      -1.92429126      -0.17135147      -0.09061813       0.27544978
H        1.01547327       0.67599916      -2.00880242       0.08151531      -0.13158587       0.41116436
H       -0.85292167       2.09570524      -0.63564611      -0.11332080      -0.41089615       0.10642194
H       -3.31562839       2.15919046      -0.71397798       0.14909037      -0.28927176       0.08698562
22
Properties=species:S:1:pos:R:3:forces:R:3 source=etkdg-seed2 energy=-123.48901197301203 pbc="F F F"
C       -3.42919486      -0.05518498       0.93939769       0.21025495       0.00332386      -0.05761383
C       -2.76068023      -1.24610504       0.66773181       0.34137388       0.24316903      -0.07792839
C       -1.41271291      -1.22348289       0.29915496      -0.40022738      -0.08336244       0.10149291
C       -0.70993570      -0.01142843       0.19447851      -0.70056549      -0.01130201       0.19190565
C        0.70993519       0.01142031      -0.19448076       0.70055454       0.01126565      -0.19190051
C        1.15363300       0.79926798      -1.26981982       0.38259592       0.05445372      -0.16768244
C        2.50113827       0.82113977      -1.64012738      -0.29090746      -0.16041402       0.26718292
C        3.42919593       0.05519161      -0.93939195      -0.21023332      -0.00341698       0.05762936
C        3.01108255      -0.73242778       0.13011273      -0.39108719       0.14948359      -0.08040445
C        1.66297348      -0.75394705       0.49823777       0.41605916      -0.04158814      -0.05109510
C       -1.40389518       1.17814946       0.47242090      -0.39841295       0.07051286       0.11729575
C       -2.75154009       1.15739611       0.84228585       0.34059543      -0.23216583      -0.10888685
H       -4.47718657      -0.07205038       1.22648771       0.31973832       0.00515172      -0.08759086
H       -3.28688735      -2.19431100       0.73932639       0.15644249       0.29776235      -0.01811863
H       -0.91212233      -2.16451218       0.08001053      -0.08884752       0.42449312       0.07030599
H        0.44294289       1.39628464      -1.83783340       0.18698189      -0.26374483       0.29744431
H        2.82297252       1.43471817      -2.47741923      -0.09141142      -0.19128091       0.26174391
H        4.47718850       0.07206344      -1.22647817      -0.31973295      -0.00515457       0.08759540
H        3.73282181      -1.32920310       0.68153315      -0.21769371       0.18629522      -0.17707047
H        1.35910330      -1.36729314       1.34418086       0.00135060       0.26678906      -0.34905479
H       -0.88992666       2.13550446       0.41362913      -0.09949595      -0.42749032      -0.01869978
H       -3.26890556       2.08881002       1.05656271       0.15266818      -0.29278015      -0.06655008
22
Properties=species:S:1:pos:R:3:forces:R:3 source=etkdg-seed3 energy=-123.48901261275171 pbc="F F F"
C       -3.54337127       0.29882827      -0.03056533       0.21725439      -0.01831606      -0.00061858
C       -2.91780196      -0.61819513       0.81010907       0.36626123       0.14122282      -0.16628172
C       -1.52509858      -0.73535904       0.80493010      -0.41696349      -0.01861179       0.05696719
C       -0.73357203       0.06187516      -0.03877137      -0.72388518       0.06102606       0.00214363
C        0.73357326      -0.06186149      -0.04306435       0.72388067      -0.06107258      -0.00213162
C        1.35482477      -1.30586960      -0.24410823       0.40619112      -0.11037581      -0.01637435
C        2.74743112      -1.42419160      -0.24893386      -0.33244384       0.26405828       0.03868962
C        3.54337028      -0.29883849      -0.05128640      -0.21726050       0.01828189       0.00062206
C        2.94831822       0.94382967       0.15042769      -0.37222167      -0.20460465      -0.03660450
C        1.55556136       1.06042402       0.15375268       0.41905117       0.04077534       0.01396140
C       -1.38528570       0.98082330      -0.87825292      -0.40829492       0.08820846      -0.05457537
C       -2.77794786       1.09855176      -0.87529674       0.33840335      -0.20068010       0.16422389
H       -4.62625740       0.39014717      -0.02740654       0.33038061      -0.02786158      -0.00095912
H       -3.51146519      -1.24194425       1.47314496       0.17673285       0.19560240      -0.20972438
H       -1.05549957      -1.45003172       1.47788516      -0.07330738       0.30340608      -0.30914246
H        0.75138034      -2.19573078      -0.41189349       0.13283700       0.41015738       0.08449671
H        3.20805574      -2.39529615      -0.40985356      -0.13503629       0.30411420       0.05238838
H        4.62625506      -0.39016933      -0.05445278      -0.33036903       0.02786496       0.00096470
H        3.56601104       1.82398795       0.30819517      -0.18436655      -0.27716168      -0.05145753
H        1.11066564       2.03870113       0.32460266       0.06176436      -0.42654211      -0.08505698
H       -0.80654378       1.60708631      -1.55427115      -0.12128574      -0.28698930       0.30970494
H       -3.26260347       1.81323284      -1.53518494       0.14267784      -0.22250220       0.20876409
22
Properties=species:S:1:pos:R:3:forces:R:3 source=etkdg-seed4 energy=-123.48901959492125 pbc="F F F"
C        3.50074648      -0.34232392      -0.52198935      -0.21460197       0.02099388       0.03200576
C        2.84947659      -1.15784778       0.39983760      -0.35488454       0.20972967      -0.10868654
C        1.47341707      -1.02298212       0.60391373       0.41037487      -0.09491161      -0.00649418
C        0.72475104      -0.07086428      -0.10805224       0.71515475      -0.06993192      -0.10663347
C       -0.72474682       0.07087042       0.10807692      -0.71515287       0.06994156       0.10663063
C       -1.29054168       1.31578571       0.43054664      -0.39792267       0.11485773       0.07701419
C       -2.66627867       1.45116863       0.63644817       0.31921512      -0.26679915      -0.09297137
C       -3.50075135       0.34231877       0.52196821       0.21462837      -0.02100407      -0.03198918
C       -2.96095975      -0.90091387       0.20259761       0.37700518       0.19877939      -0.01084444
C       -1.58483312      -1.03461788      -0.00179380      -0.41742081      -0.03516051       0.04453622
C        1.40196400       0.74182327      -1.03263156       0.40493510       0.01518288      -0.11510072
C        2.77775957       0.60758992      -1.23889357      -0.34135783      -0.14168831       0.21253729
H        4.57060402      -0.44694715      -0.68151985      -0.32639734       0.03192872       0.04866462
H        3.41075097      -1.89826836       0.96362894      -0.16708087       0.23051102      -0.17997264
H        0.98591220      -1.66232056       1.33721697       0.08095579       0.29476355      -0.31551724
H       -0.65473574       2.19257014       0.53612614      -0.15023008      -0.40567603      -0.07637574
H       -3.08329678       2.42255910       0.88865909       0.12119084      -0.30401945      -0.07965118
H       -4.57061335       0.44693548       0.68147488       0.32640988      -0.03192097      -0.04865982
H       -3.60928897      -1.76812887       0.10922419       0.19434682       0.27312855       0.03260044
H       -1.18490662      -2.01267944      -0.26180099      -0.04202719       0.42450035       0.10504855
H        0.85374046       1.48244165      -1.61149674       0.11130177      -0.31357406       0.28686167
H        3.28183048       1.24383113      -1.96154098      -0.14844234      -0.19963123       0.22699715
22
Properties=species:S:1:pos:R:3:forces:R:3 source=etkdg-seed5 energy=-123.48901361249804 pbc="F F F"
C        3.54567346      -0.26513820       0.05282638      -0.21739051       0.01626522      -0.00332111
C        2.80923640      -0.52276077       1.20620861      -0.34449920       0.08937669      -0.23479357
C        1.41564132      -0.41886811       1.18435020       0.41043442      -0.04845134       0.08142263
C        0.73404990      -0.05489011       0.01094310       0.72434564      -0.05416440       0.01078377
C       -0.73404907       0.05489528      -0.01093028      -0.72434514       0.05416491      -0.01078879
C       -1.54631451      -1.01059939       0.41200148      -0.41871142      -0.04191015       0.01943503
C       -2.93998156      -0.90751514       0.39102877       0.37033985       0.19446327      -0.08214336
C       -3.54567517       0.26514424      -0.05282817       0.21739190      -0.01635088       0.00326567
C       -2.75947076       1.33371951      -0.47594918       0.33480851      -0.24719836       0.09265958
C       -1.36596416       1.22838194      -0.45538635      -0.40708206       0.10363517      -0.03173716
C        1.49663695       0.20108803      -1.14095278       0.41527308      -0.01328837      -0.06914777
C        2.89021503       0.09655935      -1.12128981      -0.36064957      -0.03663569       0.22430203
H        4.62926303      -0.34615701       0.06895137      -0.33058019       0.02468652      -0.00483149
H        3.31728527      -0.80225695       2.12538192      -0.14999961       0.08532642      -0.28923354
H        0.85991491      -0.61323624       2.09952204       0.11079851       0.08922773      -0.41567065
H       -1.09330971      -1.93988481       0.75165530      -0.06509608       0.41048578      -0.14238535
H       -3.55013175      -1.74489736       0.71908884       0.18203944       0.26463496      -0.10152350
H       -4.62926562       0.34615884      -0.06896706       0.33061266      -0.02464470       0.00489079
H       -3.22832864       2.25178590      -0.82010037       0.13752781      -0.28852607       0.10630261
H       -0.76995336       2.07921974      -0.77941441      -0.12959545      -0.39590349       0.13948288
H        1.00334212       0.47389323      -2.07175358       0.08396176      -0.10378924       0.41859887
H        3.46118591       0.29535803      -2.02438602      -0.16958434      -0.06140397       0.28443242
22
Properties=species:S:1:pos:R:3:forces:R:3 source=etkdg-seed6 energy=-123.4890133270506 pbc="F F F"
C       -3.55170012       0.15681599      -0.00621566       0.21775782      -0.00961388      -0.00462904
C       -2.82286224       0.26721264       1.17514365       0.34696631      -0.04166394      -0.24416363
C       -1.42695657       0.20487318       1.14451334      -0.41147503       0.02968575       0.08529503
C       -0.73529694       0.03246625      -0.06619277      -0.72559315       0.03204299       0.01543583
C        0.73529690      -0.03246629      -0.09750706       0.72558784      -0.03203586      -0.01545383
C        1.43712359      -0.94622729       0.70648719       0.41209306      -0.07653663       0.04204472
C        2.83303466      -1.00898274       0.67699829      -0.34895919       0.18882693      -0.15582158
C        3.55170042      -0.15681683      -0.15746803      -0.21777685       0.00961685       0.00463802
C        2.87610375       0.75690968      -0.96225028      -0.35732615      -0.15767668       0.17088268
C        1.48010334       0.81742208      -0.93230068       0.41506567       0.04002978      -0.05965245
C       -1.49027021      -0.07606668      -1.24609288      -0.41571620       0.00683018      -0.06764887
C       -2.88627645      -0.01513862      -1.21726661       0.35935737       0.01047684       0.22914427
H       -4.63713134       0.20473774       0.01689951       0.33116066      -0.01461928      -0.00705220
H       -3.33835488       0.40466996       2.12197444       0.15217552      -0.04462305      -0.29720587
H       -0.87600902       0.30481353       2.07758250      -0.10937448      -0.05976912      -0.42127157
H        0.89416729      -1.62891752       1.35708844       0.10582581       0.31892642      -0.28300658
H        3.35647166      -1.72567112       1.30428398      -0.15466884       0.22611962      -0.19603098
H        4.63713122      -0.20474183      -0.18057673      -0.33114654       0.01462401       0.00705006
H        3.43352047       1.42587874      -1.61254273      -0.16549908      -0.21196431       0.20281874
H        0.97225475       1.54650959      -1.56052923       0.08924233      -0.32754572       0.27885830
H       -0.99041324      -0.22240280      -2.20153917      -0.08568452       0.06838095       0.42541939
H       -3.45163706      -0.10487770      -2.14107792       0.16798766       0.03048817       0.29034957
22
Properties=species:S:1:pos:R:3:forces:R:3 source=etkdg-seed7 energy=-123.48901873150398 pbc="F F F"
C        3.55362272       0.08648729      -0.09589564      -0.21785675      -0.00528184       0.00585370
C        2.89958156      -0.62939106       0.90347607      -0.36195997       0.12800120      -0.18530079
C        1.50283383      -0.66232622       0.94071483       0.41665306      -0.03675234       0.05038148
C        0.73569417       0.01790701      -0.01985913       0.72591962       0.01769684      -0.01962237
C       -0.73569655      -0.01790145       0.01984656      -0.72593739      -0.01766876       0.01959090
C       -1.43783624       0.34475582       1.18148629      -0.41248776       0.01663677       0.08375524
C       -2.83454755       0.31162510       1.21992720       0.34910826      -0.06497024      -0.23599966
C       -3.55362242      -0.08649461       0.09590405       0.21783940       0.00527406      -0.00595040
C       -2.87768268      -0.45065589      -1.06577314       0.35771770       0.08220358       0.21700390
C       -1.48097376      -0.41578839      -1.10272908      -0.41508659      -0.03679927      -0.06143771
C        1.41597377       0.73337027      -1.01948828       0.41100462       0.05692014      -0.07272767
C        2.81264664       0.76841953      -1.05762505      -0.34475947      -0.14523329       0.20439704
H        4.63964068       0.11291247      -0.12519844      -0.33134221      -0.00804704       0.00892632
H        3.47431180      -1.16553567       1.65404089      -0.17084667       0.17028014      -0.23509445
H        1.01156491      -1.23708679       1.72330730       0.08203008       0.26208479      -0.34284915
H       -0.89546594       0.66989039       2.06707763      -0.10482385      -0.15111048      -0.39898373
H       -3.35849308       0.59961729       2.12747967       0.15491578      -0.09249711      -0.28436665
H       -4.63964015      -0.11293533       0.12521440       0.33135270       0.00807571      -0.00892921
H       -3.43517108      -0.76497601      -1.94413389       0.16533671       0.10028907       0.27569177
H       -0.97197038      -0.71533160      -2.01669947      -0.09038699       0.14636936       0.40429205
H        0.85587905       1.28255242      -1.77370535       0.11308573      -0.25738240       0.33762025
H        3.31935068       1.33088544      -1.83736741      -0.14947598      -0.17808893       0.24374912
22
Properties=species:S:1:pos:R:3:forces:R:3 source=etkdg-seed8 energy=-123.48901361712399 pbc="F F F"
C        3.51930822      -0.23701070      -0.45076414      -0.21578894       0.01445695       0.02763362
C        2.95436963       0.94399662       0.02364438      -0.37502830      -0.20007387      -0.03320181
C        1.57110214       1.03602849       0.20106246       0.41765588       0.04598369      -0.02997508
C        0.72859174      -0.04907377      -0.09331243       0.71895988      -0.04846273      -0.09209024
C       -0.72859156       0.04906207       0.09332273      -0.71895318       0.04841940       0.09205224
C       -1.27589076       0.44424455       1.32548324      -0.39901468       0.04756946       0.12643274
C       -2.65899372       0.53712260       1.50374569       0.31643678      -0.09384561      -0.26987512
C       -3.51930958       0.23702295       0.45075262       0.21574960      -0.01455514      -0.02770621
C       -2.99807908      -0.15612854      -0.77918776       0.38350496       0.04672572       0.18027467
C       -1.61473293      -0.24957721      -0.95524616      -0.42060884       0.00763199      -0.02148022
C        1.31952166      -1.23071480      -0.57128270       0.40195839      -0.10117025      -0.07501005
C        2.70270207      -1.32498494      -0.74820734      -0.32484038       0.24718769       0.12282090
H        4.59483929      -0.30943653      -0.58852868      -0.32814015       0.02207616       0.04202990
H        3.58798444       1.79640970       0.25393816      -0.18926017      -0.26915672      -0.07186737
H        1.14882863       1.97177096       0.56192024       0.05329012      -0.41419037      -0.13632523
H       -0.62156120       0.67208633       2.16458364      -0.15650714      -0.10323492      -0.39729066
H       -3.06195382       0.84128140       2.46614973       0.11698291      -0.09316371      -0.30177007
H       -4.59484191       0.30946313       0.58850140       0.32814752      -0.02209731      -0.04201180
H       -3.66611030      -0.38814769      -1.60442353       0.20020891       0.07179730       0.26116931
H       -1.22784221      -0.54754671      -1.92770758      -0.03677683       0.11626873       0.42209504
H        0.70057455      -2.09633959      -0.79876869       0.14000429       0.40122857       0.11157475
H        3.14008470      -2.24952833      -1.11567527      -0.12798065       0.29060496       0.11252069
22
Properties=species:S:1:pos:R:3:forces:R:3 source=etkdg-seed9 energy=-123.48901080455511 pbc="F F F"
C        3.55464394      -0.03844119       0.08888586      -0.21796115       0.00230459      -0.00549088
C        2.84966713       0.94171441       0.78264635      -0.35205322      -0.18949874      -0.14792477
C        1.45257555       0.95637496       0.74665963       0.41339392       0.05652070       0.05790033
C        0.73590591      -0.00797640       0.01841613       0.72620685      -0.00784202       0.01817920
C       -0.73590637       0.00794723      -0.01839588      -0.72621533       0.00793136      -0.01820602
C       -1.43825642       1.16255882      -0.40246328      -0.41245421       0.07738219      -0.03614060
C       -2.83533935       1.17843601      -0.43827061       0.34921907      -0.23121755       0.07957805
C       -3.55464364       0.03846170      -0.08889790       0.21796445      -0.00239373       0.00547014
C       -2.87852957      -1.11661821       0.29537591       0.35764305       0.22355255      -0.06190110
C       -1.48138637      -1.13099275       0.32945331      -0.41540393      -0.06841069       0.01546208
C        1.46706660      -0.98798035      -0.67362546       0.41445481      -0.06548525      -0.03725303
C        2.86420225      -1.00351897      -0.63975788      -0.35481696       0.19719894       0.13028099
H        4.64097559      -0.05017786       0.11603635      -0.33143059       0.00358051      -0.00827450
H        3.38477164       1.69479183       1.35505517      -0.15834748      -0.23572612      -0.18117421
H        0.92068192       1.72407602       1.30511587       0.10056902      -0.33833664      -0.26156243
H       -0.89510512       2.06047294      -0.69036602      -0.10559181      -0.40239825       0.14125277
H       -3.35925413       2.08094004      -0.74177396       0.15484169      -0.28301412       0.09692698
H       -4.64097470       0.05022112      -0.11606717       0.33143471      -0.00359068       0.00829146
H       -3.43636329      -2.00740964       0.57183155       0.16559098       0.27955241      -0.08893059
H       -0.97285822      -2.04029140       0.64365617      -0.08965105       0.40448017      -0.14611829
H        0.94727908      -1.74430941      -1.25838039       0.09468394       0.33624037       0.26646091
H        3.41084757      -1.76827890      -1.18513375      -0.16207674       0.23917001       0.17317354
22
Properties=species:S:1:pos:R:3:momenta:R:3:forces:R:3 source=md-300K-step50 energy=-123.24857512343416 pbc="F F F"
C       -3.42216316       0.20319296      -0.04587029       0.44775911       0.61597136       0.25205931      -0.72405914       1.12068065      -0.18865235
C       -2.83623232      -0.99842220       0.24495087       0.10417788      -0.07016396      -0.45597872       0.56729881      -0.60532611      -0.42713254
C       -1.45905701      -1.06084212       0.20377426       0.06589628      -0.14756031      -0.08205695       0.31354766       1.55847175       0.32090613
C       -0.66045118       0.10714319       0.08219565       0.83386149       0.49218133       0.60495846      -1.86295274      -1.21284146       0.12345598
C        0.77038161      -0.00710424       0.09443966      -0.07476342       0.48348420       0.93655594       0.95089306       0.10230526      -0.44304748
C        1.47207334      -0.43859277       1.21846166       0.18982352      -0.36053249       0.19654891      -1.11002338       0.33273621       0.03290815
C        2.81673340      -0.48756111       1.19521011       0.07489384      -0.41245156       0.37785956       2.34604841      -0.49096839      -0.10575374
C        3.51663876      -0.15717229       0.02847479       0.28945693      -0.10629366      -0.48956081       0.64372365      -0.36226024       0.98351899
C        2.82484936       0.28195272      -1.07668930       0.46250019      -0.05220243      -0.46389187       0.03227707      -0.32904694      -0.13009865
C        1.46067698       0.32364555      -1.07402903      -0.59733291      -0.08024937      -0.32553327       0.09384723       0.06898073       0.95925206
C       -1.31595062       1.29897616      -0.14460511       0.17185337       0.14427911       0.57156652      -0.52788806       0.55665254      -0.07903050
C       -2.68702188       1.37128870      -0.24510894       0.10349493       0.95093066       0.65717962       0.31436214      -1.17200333       0.14682857
H       -4.48746135       0.27845831      -0.19382038       0.10262572       0.12622246       0.17917530      -0.07322414      -0.20593922       0.15387499
H       -3.39727664      -1.92149585       0.36105521       0.07906149       0.07759497      -0.06618270      -0.03431400       0.36667941      -0.02548010
H       -0.92942761      -1.95955546       0.28980752       0.13333042      -0.26447076       0.11125691       0.29692940      -1.12412182       0.19712603
H        0.92452505      -0.65655173       2.11483303      -0.02494921       0.18334594       0.08154497      -0.04559992      -0.12002262       0.13215578
H        3.41882225      -0.87108618       2.04178580      -0.03473251       0.17031814      -0.09795550      -0.74536481       0.35661341      -0.51341883
H        4.61414856      -0.31729405       0.03907211      -0.14636198       0.08155800      -0.23120911      -0.96512744       0.33533227      -0.28347029
H        3.30491733       0.51171985      -1.99418861       0.20315058      -0.01303547      -0.08141501       0.62069564       0.14964666      -0.39535405
H        0.93100891       0.67836918      -1.92286750      -0.00187613       0.12605550      -0.05277777      -0.34389166       0.10393641      -0.43727413
H       -0.78029258       2.20721420      -0.26993276       0.14877966       0.08645975       0.48215923       0.58447443       0.31837384      -0.06570991
H       -3.13851569       2.28807182      -0.55620261      -0.02138625       0.17421258       0.17904055      -0.33165223       0.25212099       0.04439590
22
Properties=species:S:1:pos:R:3:momenta:R:3:forces:R:3 source=md-300K-step100 energy=-123.11654592498277 pbc="F F F"
C       -3.38817703       0.32189063       0.00188564       0.25345649       0.78345762       0.08847852       0.21590434       0.72712817      -0.27861883
C       -2.77467253      -0.90026919       0.09498208      -0.27377944      -0.00087075      -0.43534962      -0.27047856      -0.63847474       0.61591439
C       -1.43400904      -1.04733689       0.26459121       0.14402350       0.85386040       0.14268764       2.04773161      -0.08287234      -0.22662520
C       -0.65223739       0.13057698       0.16430226       0.77850364       0.41942824       0.35795544      -0.68325231      -0.99540513       0.47052365
C        0.79778586       0.03522057       0.14019591       0.29826573      -0.30364597       0.17705251       0.73349644       0.22381464      -0.01311152
C        1.54688526      -0.38326385       1.23459901       0.07523998       0.66131367      -0.33552476      -1.08576774      -0.42550851       0.42917211
C        2.89007897      -0.53079111       1.15437730       0.64516071       0.20037561      -0.55624700       0.43682530       0.76171912      -1.49494333
C        3.54842985      -0.19674334      -0.01244464       0.36546549      -0.38955038       0.19082244      -1.19826191      -0.05945117      -0.16730942
C        2.83348386       0.20352363      -1.12889539       0.16772778      -0.21657566       0.00131693       0.49060403       0.72485151      -0.78890206
C        1.47830215       0.36695491      -1.02073320      -0.30797250       0.10332262       0.60699468      -0.19643098      -0.27135551      -1.13290306
C       -1.26901730       1.36566893       0.05600222      -0.00639394       0.05429177       1.29985827       0.66905495       1.34273546      -0.57263185
C       -2.62612489       1.47688636      -0.06414939       0.16579096       0.23131140       1.46113079      -0.60066891       0.14175383       0.58078582
H       -4.45317574       0.40430628       0.02950480      -0.01063020       0.04016591      -0.13712961      -0.36087427      -0.06552708      -0.10992361
H       -3.34976084      -1.78333666       0.18440429      -0.05562225      -0.00688136      -0.09139306      -0.65415115      -0.53752695      -0.04365362