24
Properties=species:S:1:pos:R:3:forces:R:3 source=etkdg-seed0 energy=-127.1511735448808 pbc="F F F"
C        3.17733043       0.98036882      -0.22455558       0.18357933       0.20135427       0.01575686
N        2.14058991      -0.01833184      -0.28611036       0.59462725       0.01261506      -0.07596252
C        2.31286820      -1.34681408      -0.57270489       0.23868007      -0.43610025      -0.11811321
N        1.16847292      -2.00110496      -0.55164654       0.06452166       0.63984217       0.11857068
C        0.24149679      -1.05257966      -0.24092969       0.39532233      -1.49883320      -0.34986264
C        0.80614031       0.17501590      -0.07161643       0.59076967       0.46561518       0.01452284
C        0.05830262       1.33763541       0.25798437      -0.11927495       0.56942041       0.12883710
O        0.57711454       2.43978091       0.40842834      -0.28601800      -0.37485039      -0.03670892
N       -1.30996947       1.08202929       0.38777211      -0.57282627       0.47023132       0.16898638
C       -2.18324427       2.18967042       0.72300645      -0.26991081      -0.00650402       0.03432453
C       -1.93191383      -0.17326741       0.22051816      -0.50399150       0.02252721       0.07098035
O       -3.15265440      -0.29923120       0.35658671       0.92236420       0.03006868      -0.11574149
N       -1.11039994      -1.25380818      -0.10250286      -1.60445889      -0.13414307       0.18507905
C       -1.67146527      -2.57899311      -0.29167119       0.07792402      -0.20263343      -0.05052248
H        2.96177982       1.75215495      -0.96761390       0.07447825      -0.00784277       0.18395797
H        4.14292869       0.51748715      -0.44391160      -0.10426816       0.15618797       0.04478030
H        3.19271661       1.40455534       0.78245957       0.02569888       0.06558813      -0.18569523
H        3.28109154      -1.78193189      -0.78689238      -0.12096176      -0.09444047      -0.00279554
H       -2.93124062       2.30494662      -0.06833346       0.14111365      -0.03203679       0.14387033
H       -1.64222464       3.13199929       0.83877696       0.12981451      -0.19837017      -0.05652840
H       -2.70326242       1.96180552       1.65931033       0.09895067       0.03143059      -0.17567148
H       -2.75535950      -2.58711412      -0.15025303       0.13413331       0.18831637       0.01970196
H       -1.44935592      -2.91933593      -1.30806186      -0.02019302       0.02873856       0.20811282
H       -1.21974211      -3.26493722       0.43196076      -0.07007443       0.10381864      -0.16987925
24
Properties=species:S:1:pos:R:3:forces:R:3 source=etkdg-seed1 energy=-127.1511735448808 pbc="F F F"
C        3.17733043       0.98036882      -0.22455558       0.18357933       0.20135427       0.01575686
N        2.14058991      -0.01833184      -0.28611036       0.59462725       0.01261506      -0.07596252
C        2.31286820      -1.34681408      -0.57270489       0.23868007      -0.43610025      -0.11811321
N        1.16847292      -2.00110496      -0.55164654       0.06452166       0.63984217       0.11857068
C        0.24149679      -1.05257966      -0.24092969       0.39532233      -1.49883320      -0.34986264
C        0.80614031       0.17501590      -0.07161643       0.59076967       0.46561518       0.01452284
C        0.05830262       1.33763541       0.25798437      -0.11927495       0.56942041       0.12883710
O        0.57711454       2.43978091       0.40842834      -0.28601800      -0.37485039      -0.03670892
N       -1.30996947       1.08202929       0.38777211      -0.57282627       0.47023132       0.16898638
C       -2.18324427       2.18967042       0.72300645      -0.26991081      -0.00650402       0.03432453
C       -1.93191383      -0.17326741       0.22051816      -0.50399150       0.02252721       0.07098035
O       -3.15265440      -0.29923120       0.35658671       0.92236420       0.03006868      -0.11574149
N       -1.11039994      -1.25380818      -0.10250286      -1.60445889      -0.13414307       0.18507905
C       -1.67146527      -2.57899311      -0.29167119       0.07792402      -0.20263343      -0.05052248
H        2.96177982       1.75215495      -0.96761390       0.07447825      -0.00784277       0.18395797
H        4.14292869       0.51748715      -0.44391160      -0.10426816       0.15618797       0.04478030
H        3.19271661       1.40455534       0.78245957       0.02569888       0.06558813      -0.18569523
H        3.28109154      -1.78193189      -0.78689238      -0.12096176      -0.09444047      -0.00279554
H       -2.93124062       2.30494662      -0.06833346       0.14111365      -0.03203679       0.14387033
H       -1.64222464       3.13199929       0.83877696       0.12981451      -0.19837017      -0.05652840
H       -2.70326242       1.96180552       1.65931033       0.09895067       0.03143059      -0.17567148
H       -2.75535950      -2.58711412      -0.15025303       0.13413331       0.18831637       0.01970196
H       -1.44935592      -2.91933593      -1.30806186      -0.02019302       0.02873856       0.20811282
H       -1.21974211      -3.26493722       0.43196076      -0.07007443       0.10381864      -0.16987925
24
Properties=species:S:1:pos:R:3:forces:R:3 source=etkdg-seed2 energy=-127.15117333644159 pbc="F F F"
C        3.20052544      -0.92312784      -0.10699518       0.18513682      -0.20050858       0.00412977
N        2.15525417       0.06846103      -0.12046921       0.59872275       0.00101393      -0.03219896
C        2.32683068       1.42358713      -0.22475829       0.23969876       0.44908279      -0.04437605
N        1.17365389       2.06239268      -0.20769238       0.06587225      -0.64924186       0.04201941
C        0.24166150       1.07613350      -0.08847474       0.39590827       1.53356585      -0.12884733
C        0.81192101      -0.15923693      -0.03239915       0.59548095      -0.45979501       0.00030029
C        0.06059994      -1.35906888       0.09210802      -0.11928485      -0.58189755       0.04723020
O        0.58453524      -2.46791841       0.14179126      -0.28851203       0.37458143      -0.01079746
N       -1.31742464      -1.13095087       0.15005788      -0.57609326      -0.49157170       0.06540849
C       -2.19512166      -2.27778712       0.27762931      -0.27177634       0.00034685       0.01455597
C       -1.94541765       0.13125902       0.09519599      -0.50741935      -0.03464149       0.02966140
O       -3.17471456       0.23095922       0.15417228       0.92874090      -0.00911632      -0.04920158
N       -1.11979837       1.24932844      -0.02756250      -1.61566148       0.09908792       0.07975477
C       -1.68659354       2.58403408      -0.09079553       0.07817440       0.20789511      -0.01878640
H        4.17209420      -0.42988663      -0.19373735      -0.10476681      -0.16127950       0.01693620
H        3.05251719      -1.59649873      -0.95488454       0.06063086      -0.01492042       0.18854484
H        3.14869166      -1.47076540       0.83728076       0.04031342      -0.04148180      -0.18999950
H        3.30108145       1.88865144      -0.30967433      -0.12192414       0.09323496       0.00000071
H       -1.64905296      -3.22357940       0.31469130       0.13043298       0.20475792      -0.02136692
H       -2.78609112      -2.17321763       1.19350366       0.11207323      -0.00837703      -0.17030748
H       -2.88102914      -2.29735979      -0.57568974       0.12963158       0.01458110       0.15690323
H       -1.39590201       3.05124961      -1.03706410      -0.03496462      -0.05487830       0.20077922
H       -2.77793822       2.56706835      -0.03104087       0.13531998      -0.18840414       0.00595769
H       -1.30028249       3.17627311       0.74480747      -0.05573426      -0.08203416      -0.18630051
24
Properties=species:S:1:pos:R:3:forces:R:3 source=etkdg-seed3 energy=-127.15117367467913 pbc="F F F"
C        3.14516077       1.02612174      -0.40251216       0.17520392       0.20609469      -0.03634431
N        2.14949179       0.00264124      -0.20975721       0.59630599       0.01869115      -0.05987123
C        2.38225692      -1.34341046      -0.10657192       0.25922101      -0.44005091       0.01588523
N        1.26301448      -2.01855089       0.06565532       0.03594514       0.64977131      -0.06426495
C        0.28981797      -1.06545824       0.07138647       0.46432789      -1.51665462       0.09656864
C        0.80129884       0.18555422      -0.09545422       0.57202205       0.47822836      -0.10047360
C       -0.00172688       1.35762504      -0.12678883      -0.14537640       0.57649477      -0.03974477
O        0.46939952       2.48091175      -0.27775461      -0.27021157      -0.38312569       0.06216931
N       -1.36364839       1.08473364       0.03147739      -0.59616625       0.47137296       0.01402553
C       -2.29010854       2.19978358       0.01750394      -0.27064247      -0.00929019       0.02726188
C       -1.93139845      -0.19495032       0.20648417      -0.50690519       0.01785320       0.04773710
O       -3.15107114      -0.33485424       0.33844790       0.92448887       0.03965633      -0.09381671
N       -1.05811549      -1.28302037       0.22311514      -1.60447244      -0.15200675       0.17060411
C       -1.56160872      -2.63300266       0.39843275       0.08734179      -0.20480145       0.01063682
H        3.10465410       1.71516044       0.44474008       0.03062117       0.01217742      -0.19586541
H        2.93087928       1.54842481      -1.33821198       0.06732917       0.04739811       0.18074353
H        4.13525172       0.56610388      -0.45599115      -0.11169704       0.15741988      -0.00383684
H        3.37373140      -1.77523603      -0.16283004      -0.11716003      -0.09701211       0.02049206
H       -3.00975016       2.05408311      -0.79483411       0.13635942       0.01610356       0.15094312
H       -1.78949240       3.16115425      -0.12119447       0.13924983      -0.19994387       0.00512407
H       -2.83819359       2.21868101       0.96526569       0.10463436      -0.01434089      -0.17460825
H       -2.64922667      -2.65199549       0.50622184       0.12616116       0.19237942      -0.03028743
H       -1.11391274      -3.06736456       1.29794050      -0.06705797       0.04878767      -0.19408636
H       -1.28670359      -3.23313545      -0.47477051      -0.02952242       0.08479767       0.19100846
24
Properties=species:S:1:pos:R:3:forces:R:3 source=etkdg-seed4 energy=-127.15117395631697 pbc="F F F"
C        3.32030731       0.23940518      -0.15880710       0.22379914       0.15504576       0.01919444
N        2.08700083      -0.50111913      -0.24005719       0.58365167      -0.12192775      -0.06321520
C        1.96190086      -1.83638592      -0.51951032       0.13684563      -0.47944044      -0.11185438
N        0.69949269      -2.21652102      -0.52135318       0.20433366       0.60981341       0.11830032
C        0.00344883      -1.08165828      -0.23301391       0.05516070      -1.55185395      -0.33748566
C        0.82613527      -0.01119742      -0.05474278       0.67992773       0.32099989       0.02601360
C        0.35236610       1.29214553       0.25577620       0.00923900       0.58258089       0.12479673
O        1.10257622       2.25053490       0.41451602      -0.36217984      -0.30122145      -0.04188253
N       -1.04068921       1.35159887       0.35682013      -0.45572169       0.58818077       0.15545930
C       -1.64913421       2.62960931       0.67041846      -0.26510426       0.05457452       0.02853790
C       -1.92546828       0.26704224       0.17944663      -0.48735124       0.13575601       0.06008992
O       -3.14577554       0.41970075       0.28960378       0.90765711      -0.17887909      -0.09599407
N       -1.36160119      -0.97283766      -0.12312214      -1.59695154       0.23130045       0.15094176
C       -2.20234463      -2.13933678      -0.32092078       0.03136175      -0.21531885      -0.04832243
H        4.16133273      -0.43026924      -0.35621247      -0.06736149       0.17595123       0.04213233
H        3.29900068       1.03444524      -0.90827910       0.06705139      -0.02303596       0.18552455
H        3.41020792       0.65662064       0.84722459       0.04356138       0.05677232      -0.18526858
H        2.81162167      -2.47956070      -0.71176290      -0.13901969      -0.06484980      -0.00515053
H       -2.22602080       2.53130826       1.59591547       0.10703457       0.00709629      -0.17358298
H       -0.91252454       3.42702751       0.79539047       0.08301230      -0.22286883      -0.05322666
H       -2.33578114       2.90429593      -0.13708926       0.12733162      -0.06188296       0.14694339
H       -1.93127374      -2.90396038       0.41398548      -0.04146045       0.11566515      -0.17160363
H       -3.26294823      -1.90257436      -0.20278696       0.17262253       0.15348355       0.02210146
H       -2.04182963      -2.52831347      -1.33143913      -0.01743998       0.03405884       0.20755096
24
Properties=species:S:1:pos:R:3:forces:R:3 source=etkdg-seed5 energy=-127.15117333943485 pbc="F F F"
C        3.14696216       0.51154101      -0.97053200       0.20740717       0.17357569      -0.03676110
N        2.00016183      -0.33092300      -0.74442051       0.55875482      -0.07430356      -0.20443056
C        1.92661251      -1.67818765      -0.98138004       0.14632568      -0.46886580      -0.14092022
N        0.73992606      -2.16217126      -0.67200202       0.17345312       0.62733625       0.06300541
C        0.03999452      -1.08279828      -0.22414061       0.10509480      -1.54938029      -0.33699856
C        0.78540726       0.05642081      -0.25607380       0.63519323       0.37708564      -0.14265072
C        0.29097083       1.32269223       0.15825843      -0.01100912       0.58410270       0.11731339
O        0.97131783       2.34375864       0.12547335      -0.33393084      -0.33126246       0.04913012
N       -1.03478463       1.26817994       0.59842829      -0.45299705       0.55164661       0.26129743
C       -1.65633666       2.49806059       1.04890215      -0.25377435       0.03294802       0.09265449
C       -1.83872195       0.10976304       0.64652528      -0.46770858       0.09603852       0.17769716
O       -3.00348955       0.16272041       1.05285124       0.86856040      -0.10480729      -0.31569252
N       -1.26082447      -1.08558630       0.21760780      -1.52533927       0.10086555       0.53824221
C       -2.02013500      -2.32244892       0.23528072       0.03712592      -0.21305091      -0.05402865
H        3.44377876       0.95839912      -0.01844508      -0.00817861       0.05581855      -0.19044192
H        3.96886769      -0.09016250      -1.36699260      -0.06998600       0.17067053       0.05698040
H        2.87418013       1.28414695      -1.69366520       0.11213747      -0.01299063       0.16341817
H        2.75588384      -2.25264499      -1.37504005      -0.12990183      -0.07631641       0.02932809
H       -0.98344314       3.35683013       0.98711810       0.08644183      -0.21637129      -0.07146119
H       -1.97853909       2.37386060       2.08801949       0.06029188       0.01189741      -0.19456425
H       -2.54079139       2.69543830       0.43425756       0.16428413      -0.04756905       0.11129442
H       -2.07865909      -2.72040917      -0.78276531       0.03097719       0.03737617       0.20538679
H       -1.51233905      -3.04427426       0.88283617      -0.09204475       0.10773796      -0.15642519
H       -3.03599938      -2.17220542       0.60989863       0.15882277       0.16781808      -0.02137318
24
Properties=species:S:1:pos:R:3:forces:R:3 source=etkdg-seed6 energy=-127.15117366270611 pbc="F F F"
C        2.80802909      -1.79487639       0.01918632       0.12066377      -0.24400284       0.01990533
N        2.08685469      -0.55108640      -0.07524185       0.57461472      -0.17025179      -0.01859944
C        2.63614081       0.69114386      -0.25365138       0.35742164       0.35938540      -0.06476657
N        1.71130842       1.62962492      -0.29968131      -0.12112412      -0.63749332       0.08090886
C        0.53731238       0.95633726      -0.14493381       0.81513253       1.34811785      -0.20812912
C        0.73362681      -0.38391568      -0.00470961       0.44068310      -0.60842561       0.04036512
C       -0.32769114      -1.31238138       0.17174813      -0.27962591      -0.52037468       0.07801960
O       -0.13989502      -2.51882602       0.29723831      -0.17041802       0.43943846      -0.03895098
N       -1.58479693      -0.70094477       0.18512227      -0.69215649      -0.30368136       0.08056972
C       -2.75229566      -1.54277180       0.35871317      -0.26059964       0.07804728       0.00835321
C       -1.82887226       0.68139337       0.04325196      -0.49656933       0.11209048       0.02008268
O       -2.97976684       1.12793097       0.06844518       0.88829470      -0.27426971      -0.02749344
N       -0.71949523       1.51070102      -0.12505519      -1.52168403       0.55644164       0.03718674
C       -0.88428620       2.94461977      -0.27807546       0.13400535       0.17574726      -0.02896382
H        3.88002713      -1.60270182      -0.07379679      -0.14627966      -0.12372063       0.02383395
H        2.59794305      -2.24608914       0.99207984       0.02793062      -0.06284280      -0.18632601
H        2.47978955      -2.45001023      -0.79155978       0.05288768      -0.01977143       0.19041585
H        3.70271283       0.85570261      -0.34311957      -0.09048578       0.12370927      -0.00814973
H       -2.49697992      -2.60017085       0.46267874       0.18324509       0.15781488      -0.03018260
H       -3.29431783      -1.21905861       1.25337933       0.10601759      -0.05022049      -0.16695875
H       -3.41098157      -1.42035081      -0.50739972       0.12759683      -0.01298592       0.15870099
H       -0.46793271       3.25122337      -1.24288609      -0.05017526      -0.03024318       0.20275758
H       -1.93597091       3.24053651      -0.24224244       0.07631734      -0.21822418       0.01989253
H       -0.35046255       3.45397024       0.53050975      -0.07569274      -0.07428456      -0.18247171
24
Properties=species:S:1:pos:R:3:forces:R:3 source=etkdg-seed7 energy=-127.15117363440628 pbc="F F F"
C        3.19139472      -0.95779707      -0.06783228       0.18247680      -0.20280321      -0.00818806
N        2.15905196       0.04644929      -0.02563576       0.59951959      -0.00513917      -0.00764532
C        2.35038431       1.40243326       0.01152355       0.24648300       0.44748999       0.00997138
N        1.20491072       2.05432264       0.04485765       0.05660068      -0.65117597      -0.01970136
C        0.25748725       1.07573186       0.02815804       0.41853170       1.53246971       0.03946772
C        0.81068464      -0.16788681      -0.01503139       0.58963515      -0.46680674      -0.02098738
C        0.04108997      -1.36231974      -0.04024999      -0.12783039      -0.58179383      -0.01537378
O        0.54972653      -2.47869672      -0.07917317      -0.28348830       0.37826462       0.01458105
N       -1.33544412      -1.11960224      -0.01596028      -0.58392754      -0.48660576      -0.00689166
C       -2.23081563      -2.25963867      -0.03801946      -0.27212170       0.00313281       0.00349699
C       -1.94606341       0.15150117       0.02874658      -0.50858049      -0.02949306       0.00549613
O       -3.17552663       0.26402468       0.04739633       0.92981944      -0.01867550      -0.01216471
N       -1.10325199       1.26325013       0.05063800      -1.61633861       0.11588007       0.02358596
C       -1.65154858       2.60636077       0.09666697       0.08126708       0.20749408       0.00503739
H        3.07130454      -1.54223001      -0.98340177       0.05250544      -0.03431306       0.18844890
H        3.09378387      -1.59467999       0.81483625       0.04775671      -0.02323169      -0.19138691
H        4.17133947      -0.47358527      -0.06595861      -0.10722053      -0.16050974      -0.00334335
H        3.33260908       1.85838694       0.01254383      -0.12074230       0.09466698       0.00427077
H       -2.88056098      -2.18461527      -0.91620383       0.12310035      -0.00292143       0.16270277
H       -1.69766624      -3.21287123      -0.07247665       0.13355175       0.20381633       0.00427415
H       -2.85838649      -2.23638204       0.85898684       0.11900878       0.00665741      -0.16562849
H       -1.29379359       3.10756133       1.00166711      -0.04882222      -0.06245892      -0.19560255
H       -2.74456097       2.60057513       0.11016475       0.13278223      -0.19015757      -0.00720743
H       -1.31614843       3.15970787      -0.78624272      -0.04396662      -0.07378635       0.19278778
24
Properties=species:S:1:pos:R:3:forces:R:3 source=etkdg-seed8 energy=-127.15117369808092 pbc="F F F"
C        3.04283912      -1.13048024      -0.75506423       0.15803509      -0.20620069      -0.08368171
N        2.13336522      -0.10076991      -0.32081040       0.59043986      -0.04522849      -0.09401516
C        2.46806707       1.18299471       0.02066359       0.29119603       0.41132472       0.08436491
N        1.40910882       1.88337837       0.37598088      -0.01436405      -0.62647318      -0.18691661
C        0.36972270       1.01133186       0.25456741       0.57768079       1.43724784       0.35466845
C        0.78107302      -0.21505252      -0.17116993       0.53096041      -0.48602562      -0.21881558
C       -0.10626606      -1.30545241      -0.37911090      -0.18869469      -0.54773462      -0.13944529
O        0.27486545      -2.40716806      -0.76314903      -0.23870739       0.38077454       0.14729609
N       -1.43708297      -0.98079343      -0.10005695      -0.62805262      -0.42603931      -0.04294704
C       -2.44255018      -2.01072072      -0.27368175      -0.26792404       0.02130282       0.04290126
C       -1.90207798       0.27573463       0.34206924      -0.50453088       0.00599547       0.07049082
O       -3.10194152       0.46600925       0.56277783       0.91459155      -0.08038668      -0.14874084
N       -0.95147109       1.28214611       0.51607595      -1.58087075       0.21949567       0.28138819
C       -1.34727094       2.60333723       0.96828160       0.10246179       0.19295159       0.04421301
H        2.98601714      -1.96457221      -0.05127928       0.02176169       0.02350497      -0.19601763
H        4.06102050      -0.73335768      -0.77395477      -0.12299109      -0.14627713      -0.02735509
H        2.75347486      -1.44960907      -1.75939320       0.07087838      -0.08526806       0.16478648
H        3.48545260       1.55294025      -0.00630349      -0.10882569       0.09864295       0.04455353
H       -2.01967762      -2.95808113      -0.61686442       0.15361413       0.18590708       0.03513621
H       -2.95205682      -2.17496884       0.68153127       0.09831078       0.04065781      -0.17413290
H       -3.18161467      -1.66660131      -1.00468892       0.14076736      -0.05336570       0.13774894
H       -2.42536959       2.67130465       1.13554107       0.11041087      -0.19076202      -0.07254511
H       -1.06441313       3.34023441       0.20986819      -0.02796408      -0.11764160       0.17300219
H       -0.83321390       2.82821605       1.90817024      -0.07818343      -0.00640236      -0.19593710
24
Properties=species:S:1:pos:R:3:forces:R:3 source=etkdg-seed9 energy=-127.15117337943559 pbc="F F F"
C        2.90424522      -1.37010936      -0.83701074       0.14151650      -0.22349074      -0.06723545
N        2.07990556      -0.24605105      -0.47234759       0.57455046      -0.08600939      -0.14832350
C        2.48832885       1.05761072      -0.37067429       0.31075527       0.40546502      -0.01163974
N        1.49699702       1.85147279      -0.01680332      -0.05362511      -0.64609882      -0.08541773
C        0.42545795       1.01994868       0.10929829       0.65573660       1.44601888       0.06504756
C        0.75024400      -0.27409604      -0.16354262       0.48853244      -0.53732789      -0.19656713
C       -0.18639983      -1.34126440      -0.10495821      -0.21913175      -0.55316924      -0.03234986
O        0.11671083      -2.50453415      -0.35285175      -0.20937757       0.40916595       0.11139128
N       -1.46732701      -0.91737769       0.26095607      -0.64110757      -0.39823398       0.09050993
C       -2.51566921      -1.91422571       0.35651730      -0.26067200       0.03983359       0.06742222
C       -1.84267012       0.41137101       0.55096157      -0.49301602       0.03976888       0.12210842
O       -3.00402670       0.68774456       0.86633104       0.88932758      -0.14389205      -0.23121323
N       -0.84946119       1.38758144       0.46525770      -1.53211125       0.33191467       0.41109620
C       -1.15305080       2.77851348       0.74780938       0.11237742       0.19246118       0.00273056
H        3.92504110      -1.02770080      -1.02539439      -0.12951550      -0.14289466       0.00880753
H        2.49459039      -1.82269269      -1.74343371       0.08642687      -0.06274368       0.16745601
H        2.90249404      -2.08558981      -0.01097480       0.00026647      -0.00722036      -0.19847873
H        3.50663009       1.37200413      -0.56271540      -0.10019400       0.10912508       0.04014840
H       -2.91915830      -1.90954790       1.37444702       0.07925941       0.00948023      -0.18779566
H       -2.16198409      -2.92084886       0.12050025       0.16196691       0.18179323      -0.01055433
H       -3.32182675      -1.65003194      -0.33581070       0.15374219      -0.03852166       0.12852964
H       -0.93579813       3.37937539      -0.14100016      -0.01176512      -0.08891650       0.19105672
H       -0.53021939       3.11799150       1.58150641      -0.09986170      -0.03212959      -0.18312807
H       -2.20305354       2.92045671       1.01658122       0.09591946      -0.20437816      -0.05360103
24
Properties=species:S:1:pos:R:3:momenta:R:3:forces:R:3 source=md-300K-step50 energy=-126.65055227322236 pbc="F F F"
C        3.23654612       1.04903027      -0.17753866       0.01855908       0.04230081       0.11984491      -1.50778758      -1.06162796       2.43914029
N        2.22029838      -0.06332209      -0.24887616      -0.11240557      -0.87810270      -0.07951288      -1.08936126       1.40650616      -0.23020833
C        2.27453917      -1.34541613      -0.66630000       0.13279402       0.25494082       0.30419120      -0.40382376      -1.72468159       0.03618067
N        1.08705486      -1.98851683      -0.57684490       0.02757434      -0.09159158      -0.88009540       1.39034438       0.38134911      -0.58595684
C        0.18134667      -1.05980043      -0.26210318       0.27461409      -0.20508817      -0.03721392       0.95580082      -0.48405758      -0.09365126
C        0.83131473       0.11572635      -0.03088049       0.53528628       0.17961316       0.33545957       0.74065368       1.83482994       0.15396975
C        0.05897550       1.32495648       0.27350965       0.32575258       0.42568746      -0.25218726       0.70176872       0.83982820       0.43596352
O        0.60538296       2.41629837       0.52520375      -0.01738978      -0.10826045       0.99093847      -0.67841770      -1.40758970      -0.44255504
N       -1.34170219       1.15432014       0.32572861       0.02918843       0.03498113       0.03759186       0.22177875      -0.41292045      -0.57654821
C       -2.14798118       2.27591037       0.69557578       0.03231975       0.59494979      -0.10792974       0.68858250       0.21411702       2.26244352
C       -1.97224516      -0.10334915       0.18987329      -0.16873398      -0.26748112      -0.17847274       1.17891843       0.43821657      -0.01962423
O       -3.14354731      -0.20056391       0.44466769      -0.00548933       0.79374253       0.32231802      -1.18230470      -0.32027618       0.03349002
N       -1.18578865      -1.18925993      -0.19473494      -0.71253500       0.28772576      -0.41124809      -1.52754166      -0.62988593       0.29930168
C       -1.72257169      -2.55554100      -0.31904891      -0.64385279       0.33723669       0.17320837      -0.28622164       0.21007433       0.57502486
H        2.97593093       1.89740859      -0.78167950       0.06123061       0.20457769       0.25364223      -0.13235445       0.31827287      -0.26824970
H        4.24237808       0.72634408      -0.30997821       0.05828872       0.02614863      -0.04159666       0.63617164      -0.29888156      -0.40194176
H        3.13037195       1.27740565       0.93073212      -0.21323749       0.04077568      -0.02084786       0.34364006       0.35360585      -1.29527125
H        3.19790558      -1.82945372      -0.96729636      -0.00882769       0.05832174      -0.09679724      -0.13953010       0.02050150       0.06853702
H       -2.97287565       2.56514112       0.05508473      -0.07372916       0.17597773       0.14317094      -0.02310918      -0.20933490      -0.38680592
H       -1.43734244       3.09254364       0.87802680       0.03573716       0.05867473      -0.02601538      -0.34110188       0.17537416      -0.38801202
H       -2.51052227       2.05247603       1.73179283      -0.05015876       0.13157862      -0.00634335      -0.10753464       0.12845522      -0.92746003
H       -2.81546437      -2.67099013      -0.46279404       0.05615816      -0.03332943      -0.30313694       0.51254762       0.50849034       0.04523361
H       -1.20353554      -2.96471030      -1.15328151      -0.10355395      -0.06503172       0.05323603       0.12877231      -0.51597352      -0.73231653