17
Properties=species:S:1:pos:R:3:forces:R:3 source=etkdg-seed0 energy=-76.6027129563651 pbc="F F F"
N       -1.86796963       1.33913504      -0.75754720      -0.68902708      -0.19512426       0.75595454
C       -1.71837310       1.17363999       0.70444360       0.62207378      -0.65546454      -0.35616772
C       -0.63005832       0.14942763       1.04743215      -0.23333009       0.10058043       0.48902097
O       -0.50297019      -0.32747629       2.17115204      -0.20243261       0.42791212      -0.98399663
N        0.19851012      -0.16274879       0.00036909      -0.26631168      -0.06003281       0.56281696
C        1.34954308      -1.02999026       0.14679111       0.47102803      -0.20022399      -0.41987735
C        2.10719850      -1.22198968      -1.15655929      -0.02671676       0.16562284      -0.25376282
O        3.09391051      -1.92354296      -1.31602892      -0.72841006       0.32245883       0.64846352
O        1.60561470      -0.51584103      -2.19503694       0.31340071      -0.25376525       0.06447372
H       -2.24200404       0.46677945      -1.13594998       0.28023224       0.32574762       0.02163015
H       -2.59053980       2.03994909      -0.92500944       0.31658527      -0.15286572      -0.11089447
H       -2.66681170       0.83372372       1.13116199      -0.00677377       0.09786331       0.18770944
H       -1.43734006       2.13122077       1.15254624      -0.09072726       0.01779769       0.05747875
H        0.07716323       0.37024146      -0.86077799       0.45434890      -0.06594173      -0.77924281
H        1.00018142      -2.00249329       0.50574388       0.06459462       0.05045543       0.13955229
H        2.02136647      -0.57911016       0.88325578      -0.05548964      -0.13273716       0.10567284
H        2.20257879      -0.74092471      -2.93980339      -0.22304459       0.20771719      -0.12883138
17
Properties=species:S:1:pos:R:3:forces:R:3 source=etkdg-seed1 energy=-76.6027129563651 pbc="F F F"
N       -1.86796963       1.33913504      -0.75754720      -0.68902708      -0.19512426       0.75595454
C       -1.71837310       1.17363999       0.70444360       0.62207378      -0.65546454      -0.35616772
C       -0.63005832       0.14942763       1.04743215      -0.23333009       0.10058043       0.48902097
O       -0.50297019      -0.32747629       2.17115204      -0.20243261       0.42791212      -0.98399663
N        0.19851012      -0.16274879       0.00036909      -0.26631168      -0.06003281       0.56281696
C        1.34954308      -1.02999026       0.14679111       0.47102803      -0.20022399      -0.41987735
C        2.10719850      -1.22198968      -1.15655929      -0.02671676       0.16562284      -0.25376282
O        3.09391051      -1.92354296      -1.31602892      -0.72841006       0.32245883       0.64846352
O        1.60561470      -0.51584103      -2.19503694       0.31340071      -0.25376525       0.06447372
H       -2.24200404       0.46677945      -1.13594998       0.28023224       0.32574762       0.02163015
H       -2.59053980       2.03994909      -0.92500944       0.31658527      -0.15286572      -0.11089447
H       -2.66681170       0.83372372       1.13116199      -0.00677377       0.09786331       0.18770944
H       -1.43734006       2.13122077       1.15254624      -0.09072726       0.01779769       0.05747875
H        0.07716323       0.37024146      -0.86077799       0.45434890      -0.06594173      -0.77924281
H        1.00018142      -2.00249329       0.50574388       0.06459462       0.05045543       0.13955229
H        2.02136647      -0.57911016       0.88325578      -0.05548964      -0.13273716       0.10567284
H        2.20257879      -0.74092471      -2.93980339      -0.22304459       0.20771719      -0.12883138
17
Properties=species:S:1:pos:R:3:forces:R:3 source=etkdg-seed2 energy=-76.46893491914142 pbc="F F F"
N        2.38380141       0.70833108       0.22914004       0.46557851      -0.94188105      -0.00284073
C        1.84991266      -0.59689180       0.67735512      -0.67989707       0.30364633      -0.60057760
C        0.49474457      -0.90562472       0.02747762       0.05142023      -0.46868149       0.15993398
O       -0.05080106      -1.99989590       0.13185837       0.58276094       0.90441050      -0.13792269
N       -0.05160994       0.15691825      -0.65850295       0.18826779      -0.82117703       0.50598072
C       -1.43148954       0.12798643      -1.10824717      -0.61494163       0.39629937       0.30611641
C       -2.41727584       0.64932312      -0.07075904       0.06403797       0.31616944       0.08308619
O       -3.63393271       0.65280551      -0.18497521       0.94075379      -0.35322234      -0.36387791
O       -1.84311406       1.19723250       1.02192151      -0.37037728      -0.14325318      -0.03290016
H        2.61622517       0.62512710      -0.76266655      -0.17820813       0.18314308       0.34863071
H        3.27318092       0.86573037       0.70428226      -0.31129523       0.14655719      -0.14108624
H        1.70927139      -0.57715142       1.76205001       0.06352083      -0.07816689       0.02990325
H        2.55477053      -1.39062359       0.41244643      -0.01151718      -0.13237174       0.16671897
H        0.35566510       1.05327053      -0.39831033      -0.40496057       0.75077028      -0.28309375
H       -1.71285987      -0.89508317      -1.37369037       0.11341203      -0.01349552      -0.08148332
H       -1.49192665       0.77610246      -1.98698367      -0.12905961      -0.18572738      -0.14824985
H       -2.60456209       1.46480869       1.57760392       0.23050460       0.13698043       0.19166202
17
Properties=species:S:1:pos:R:3:forces:R:3 source=etkdg-seed3 energy=-76.49523321186936 pbc="F F F"
N        1.97151655       0.98180004      -0.85039935       0.42598625       0.23251634       0.96695052
C        2.09347973       0.05565622       0.29748907      -0.99073977       0.10950758      -0.19104311
C        0.74878730      -0.61759085       0.59205546       0.21874939      -0.21737723       0.37560389
O        0.42767272      -1.00153359       1.71161950       0.33195842       0.34623862      -0.91794776
N       -0.03747988      -0.77225516      -0.52909209       0.36901832       0.12695619       0.94309916
C       -1.43261227      -1.15318235      -0.41875247      -0.65412689       0.48526156      -0.10668572
C       -2.36953959       0.03555833      -0.24675610       0.04675517       0.23003839      -0.22111163
O       -3.57729246      -0.03067603      -0.07249918       0.92995493      -0.53077074      -0.04060817
O       -1.77488966       1.24444319      -0.35607535      -0.37285635      -0.10934907       0.16647122
H        1.35636264       1.74914910      -0.56914748       0.12550696      -0.38764560      -0.26569458
H        2.88422665       1.41009825      -1.00877656      -0.32234953      -0.13270617      -0.14461598
H        2.82825779      -0.72258174       0.07186834       0.07297561       0.03396130       0.05305498
H        2.41165865       0.61424053       1.18285199       0.10641618      -0.13673306       0.11268915
H        0.24718659      -0.17666936      -1.30468650      -0.53267774      -0.01090330      -0.73416678
H       -1.56563900      -1.82758722       0.43198136       0.10485637      -0.08827926      -0.04823527
H       -1.69780872      -1.66151502      -1.34988601      -0.11280113      -0.21334660       0.12646215
H       -2.51388705       1.87264565      -0.21324649       0.25337381       0.26263104      -0.07422208
17
Properties=species:S:1:pos:R:3:forces:R:3 source=etkdg-seed4 energy=-76.70120023793245 pbc="F F F"
N       -3.33213648       0.02742199      -0.08425900       0.72643545      -0.57071595       0.17687131
C       -1.99823843       0.63609834       0.02602883      -0.17893629      -1.29154713       0.14700459
C       -0.93523280      -0.42811930       0.32431471      -0.48219911      -0.16675846      -0.04711071
O       -1.19347817      -1.62278583       0.44918644       0.04894965       1.27196250      -0.16564281
N        0.33634957       0.07522886       0.43990409       0.02836545      -0.80595977       0.11355574
C        1.47319775      -0.78563408       0.72124289       0.56639729       0.27741779       0.04424757
C        2.77392209      -0.00332322       0.80314711      -0.04766380       0.34584460      -0.05386018
O        3.88106354      -0.46536676       1.02602953      -0.95664030      -0.21100409      -0.10971528
O        2.62191337       1.32697571       0.60050813       0.52995234      -0.24530975       0.10995603
H       -3.27680540      -0.70937109      -0.79236915      -0.07422522       0.40176438       0.20212341
H       -3.50398999      -0.49607205       0.77815928      -0.00560815       0.32473054      -0.30411665
H       -2.00008459       1.37383737       0.83430048      -0.02839711       0.10740841      -0.09037611
H       -1.74714796       1.13636982      -0.91431546      -0.04835444       0.12614007       0.04755692
H        0.52111755       1.06786060       0.33182854       0.25682454       0.41857644      -0.01969412
H        1.54911997      -1.52405966      -0.08223600      -0.05974715      -0.11153141       0.12303121
H        1.29452186      -1.28503641       1.67794934      -0.02731023      -0.14197124      -0.10119748
H        3.53590811       1.67597572       0.68531113      -0.24784291       0.27095308      -0.07263346
17
Properties=species:S:1:pos:R:3:forces:R:3 source=etkdg-seed5 energy=-76.51432154527954 pbc="F F F"
N       -2.12504500      -0.81392591      -1.04866491      -0.67142088       0.52993283       0.69703064
C       -1.96234034      -0.83487669       0.42209079       0.82184110       0.46757239      -0.37782529
C       -0.54085275      -0.41435463       0.81057634      -0.12421071      -0.03956794       0.44285343
O       -0.27199268       0.12010036       1.88109296      -0.29842165      -0.45556944      -0.87956948
N        0.39758812      -0.72227482      -0.15159694      -0.57783257       0.25322202       0.81119960
C        1.72937236      -0.15298286      -0.10045522      -0.70504611       0.49410479      -0.78790476
C        1.74428691       1.21356268      -0.76789551       0.09901830       0.08993239      -0.20073987
O        0.87032328       1.69873019      -1.47141719       0.31415833      -0.82674835       0.66376753
O        2.89683119       1.88164169      -0.55432722      -0.31865519       0.28633726      -0.16128991
H       -3.08529823      -1.08348171      -1.26491508       0.36700316      -0.01446722      -0.09166669
H       -2.04136099       0.15793215      -1.36027914       0.15227020      -0.50181490       0.04365101
H       -2.14177747      -1.84439455       0.80288481      -0.08976158       0.01383977       0.03533172
H       -2.67409139      -0.13922499       0.87656715      -0.04117887      -0.07865327       0.18505556
H       -0.01508262      -0.92363084      -1.06165541       0.61008361      -0.12194154      -0.66378972
H        2.39859949      -0.82145588      -0.64822291       0.16885533      -0.00333686       0.17741550
H        2.05152435      -0.05444895       0.94012043      -0.00997097      -0.09791657       0.00609426
H        2.76931577       2.73308477      -1.02298935       0.30326850       0.00507462       0.10038646
17
Properties=species:S:1:pos:R:3:forces:R:3 source=etkdg-seed6 energy=-76.63329271659785 pbc="F F F"
N       -3.14877277      -0.26189805       0.67615482       0.78468452      -0.39036177      -0.32384242
C       -2.04247230       0.63076413       0.30000012       0.10046721      -1.32519109      -0.07364257
C       -0.84723070      -0.17381328      -0.22816088      -0.31141774      -0.30107932       0.03551036
O       -0.84163173      -1.40029790      -0.29935418      -0.23884581       1.24938208       0.08171759
N        0.21635556       0.61099101      -0.62313488      -0.20162772      -0.81599960      -0.04334403
C        1.48799395      -0.00391618      -0.97492396      -0.11245220       0.66167391       1.02081586
C        2.36314585      -0.13708508       0.26009840       0.18662035       0.18755224       0.05923514
O        2.23052712       0.47067403       1.31223642      -0.37031597      -0.29857145      -0.98050341
O        3.40007793      -0.97858876       0.07903871      -0.02217198       0.02160518       0.45688347
H       -2.78214953      -0.93812232       1.35117196      -0.19777560       0.36754680      -0.18136322
H       -3.36535330      -0.84324911      -0.13764998      -0.01777834       0.32079814       0.30289691
H       -1.72547374       1.20609842       1.17524334      -0.08229091       0.10642336      -0.02414959
H       -2.37975803       1.32093090      -0.47935967      -0.02866692       0.10013032       0.09619965
H        0.25981013       1.55014126      -0.24465386       0.36511026       0.40277159      -0.02282267
H        1.98867658       0.65222225      -1.69176769       0.04600982      -0.17760905      -0.15203891
H        1.31906724      -0.99037075      -1.41602189      -0.06007215       0.03773739      -0.04571529
H        3.86718775      -0.97738427       0.94108322       0.16052317      -0.14680872      -0.20583686
17
Properties=species:S:1:pos:R:3:forces:R:3 source=etkdg-seed7 energy=-76.46893000122762 pbc="F F F"
N       -2.34831109       0.11414709       0.93780075      -0.51759336      -0.37793109      -0.83256447
C       -1.97355527       0.16084029      -0.49290499       0.78273549      -0.37287587       0.40430940
C       -0.55585794      -0.37893712      -0.72293211      -0.10495330      -0.01477731      -0.48648042
O       -0.10289485      -0.58075237      -1.84544756      -0.49635401       0.10198750       0.95910490
N        0.15608878      -0.59317689       0.43694086      -0.31578105       0.17245297      -0.91457510
C        1.58456519      -0.84897620       0.40234136       0.58345922       0.49636497       0.20519575
C        2.42770661       0.41871560       0.44727292      -0.05621168       0.17576322       0.27735855
O        3.64511321       0.46643054       0.35263605      -0.89298687      -0.57679397      -0.10992514
O        1.72608113       1.55049557       0.67224516       0.36126293      -0.03224255      -0.16505301
H       -3.28912617       0.49858981       1.03053715       0.33799866      -0.04321677       0.14887406
H       -2.42839443      -0.86876964       1.20628795       0.13294341       0.40939615       0.03953885
H       -2.67700153      -0.44199895      -1.07493581      -0.02287722       0.11255033      -0.17960657
H       -2.00238498       1.19756243      -0.84091176      -0.07217627      -0.00636661      -0.07608646
H       -0.22967252      -0.10021682       1.24018270       0.49033137       0.03918220       0.75224967
H        1.83907509      -1.40529422      -0.50432066      -0.09997131      -0.09485684       0.02625820
H        1.82147834      -1.44360238       1.28900769       0.13863951      -0.18456902      -0.14086682
H        2.40709044       2.25494325       0.65947932      -0.24846552       0.19593267       0.09226860
17
Properties=species:S:1:pos:R:3:forces:R:3 source=etkdg-seed8 energy=-76.46893390606152 pbc="F F F"
N        2.44970681      -0.13055614       0.54168069       0.32314578      -0.16082212      -0.98671058
C        1.74143667      -0.79511980      -0.57467421      -0.64163655       0.64599441       0.29348577
C        0.34156202      -0.20387939      -0.78662677      -0.01388154      -0.23840775      -0.43688929
O       -0.35517494      -0.49338701      -1.75445310       0.70512459       0.28975106       0.77164781
N       -0.05928698       0.65647633       0.21196080       0.07784359      -0.64037844      -0.74138977
C       -1.43835027       1.09881689       0.31041441      -0.54362289      -0.23140108       0.52900820
C       -2.31419128       0.16964820       1.14077299       0.11125416      -0.02764240       0.31276300
O       -3.51959153       0.28655664       1.30403758       0.87089139       0.29469822      -0.54493172
O       -1.64203453      -0.81418738       1.77645517      -0.38794391       0.00894027      -0.09059318
H        3.36291502      -0.57428599       0.64504547      -0.28966429       0.16519068       0.16457798
H        2.64531449       0.83138534       0.25702261      -0.14178184      -0.31133951       0.26421199
H        1.62944619      -1.85977788      -0.34951843       0.05210641      -0.04309716      -0.08041349
H        2.31698600      -0.67301159      -1.49708729      -0.02697254      -0.18698175      -0.09877314
H        0.47999746       0.55321720       1.06959089      -0.29743383       0.40937914       0.74281270
H       -1.42330050       2.07619632       0.80070694      -0.15803097       0.11447672      -0.18721910
H       -1.87169086       1.18503909      -0.69012630       0.10838155       0.07759358      -0.04378960
H       -2.34374379      -1.31313084       2.24426030       0.25222089      -0.16595389       0.13220241
17
Properties=species:S:1:pos:R:3:forces:R:3 source=etkdg-seed9 energy=-76.47439694555393 pbc="F F F"
N       -2.51910620      -0.02145266      -0.38927329      -0.43550007       0.34760607       0.87411230
C       -1.96104644       0.88157791       0.64104030       0.68689631      -0.67343559      -0.07180235
C       -0.58121756       0.40811812       1.11609141      -0.02736647       0.31404229       0.36484814
O       -0.01819862       0.89262409       2.09294721      -0.60254591      -0.45657832      -0.78231489
N       -0.03179848      -0.58562851       0.33588718      -0.31549387       0.65089807       0.65586334
C        1.35796678      -0.97221139       0.48241613      -0.20455698       0.59177461      -0.91008368
C        2.25788721      -0.09359948      -0.37148133       0.13831018      -0.08628859      -0.18431150
O        1.92114748       0.61544559      -1.30754677      -0.30665149      -0.63322156       0.82373404
O        3.56051487      -0.20670674      -0.03804255      -0.07512162       0.39544779      -0.26518809
H       -3.42052792       0.35451264      -0.68504465       0.30534450      -0.18320065      -0.09183859
H       -2.72917310      -0.91527636       0.05907781       0.16574480       0.24942962      -0.29680266
H       -2.63602908       0.91590386       1.50139468       0.01183205       0.20342954       0.06249720
H       -1.84919567       1.88565392       0.22145087      -0.05957224       0.05702512       0.05853168
H       -0.47440860      -0.67378334      -0.57768420       0.40802339      -0.49979570      -0.60046958
H        1.65521361      -0.88738753       1.53180520      -0.06270528      -0.05411514       0.01082295
H        1.45355893      -2.00712805       0.14348939       0.11541222      -0.06493677       0.19016863
H        4.01441279       0.40933794      -0.65088294       0.25795046      -0.15808080       0.16223308
17
Properties=species:S:1:pos:R:3:momenta:R:3:forces:R:3 source=md-300K-step50 energy=-76.41370201732715 pbc="F F F"
N       -1.81802320       1.31890689      -0.78233908       0.54999262      -0.32803799       0.12115792       0.19321103       0.65449378      -0.20292587
C       -1.71700846       1.15449483       0.63106477       0.60955025      -0.49000619      -0.00762520       1.54399957      -0.21241405       0.22640272
C       -0.62950397       0.10325536       0.98868851       0.61335821      -0.61356432      -0.31788113      -0.86959040      -0.27215787       1.47117493
O       -0.55079850      -0.29721882       2.14149805      -0.81481968       0.59814294      -0.69067785       0.02685131       0.34360480      -0.61396074
N        0.18833580      -0.37500903       0.00796261       0.18414435      -1.11188249      -0.52195785      -1.03994254       1.82373591      -2.11997854
C        1.34787486      -1.16654541       0.08374614      -0.27336677       0.05782147      -0.35423314       1.03066682      -0.26031820       0.53878642
C        2.03009506      -1.24735886      -1.26446323      -0.42093767      -0.23779227      -0.33725895       1.04107974      -0.75061434      -0.14701853
O        3.02230701      -1.97409669      -1.40005162      -0.79684858      -0.30864526      -0.56858335      -1.46343945       1.09074196       0.17315073
O        1.51632979      -0.48924144      -2.27595959      -0.78601351       0.12303956      -0.42506601      -0.81810103      -0.12241302       2.10407114
H       -1.99172692       0.45331580      -1.24209713      -0.03113194       0.13990627       0.08685285      -0.38476289      -0.54429097      -0.44116471
H       -2.41253333       2.07608389      -1.12682551      -0.05413069      -0.01781891       0.00721200       0.00659516      -0.34969376       0.20901087
H       -2.68115360       0.92804566       1.08875290      -0.00574488      -0.02105562      -0.11370001      -0.06067508      -0.07883709       0.10859235
H       -1.33814876       2.11692481       1.00647935      -0.01333906      -0.00257083      -0.13608555      -0.27783401      -0.10753904       0.26216574
H        0.10036030       0.10505458      -0.92688826       0.10381620      -0.25691151      -0.21204135       0.27070544      -0.41996674       0.36149877
H        1.01217118      -2.15261863       0.39599625      -0.05945443       0.02949715       0.08328607       0.20262371      -0.26194066       0.15695512
H        2.06326125      -0.75153982       0.83519254      -0.17305786      -0.19899224       0.20740714      -0.54858382      -0.27274064      -0.35209386
H        2.07715722      -0.61625719      -3.01333596       0.06087934       0.12383668       0.04551324       1.14719643      -0.25965008      -1.73466654
17
Properties=species:S:1:pos:R:3:momenta:R:3:forces:R:3 source=md-300K-step100 energy=-76.39417464970047 pbc="F F F"
N       -1.74468213       1.28328457      -0.82693860       0.02735689       0.04109227      -0.01118138      -0.20812381      -1.33922678      -0.11192146
C       -1.56860113       1.08273494       0.59880806       0.06105975      -0.27221951      -0.10491468      -1.10849830      -0.15536699      -0.21666304
C       -0.60608350       0.02561161       0.91763501       0.38292320      -0.31446969       0.10458586      -0.53550651       0.78001977      -0.49647351
O       -0.57586891      -0.25827176       2.08608201       0.73640340      -0.29437299      -0.77195265       0.81422762      -0.96292345       0.71057920
N        0.08953697      -0.42534331      -0.15264063      -0.67824392      -0.50516229      -0.14637709       1.17451374      -1.24899663      -0.09165430
C        1.27943358      -1.29017115       0.00269249      -0.91834981       0.00941679      -1.15938223      -0.49897758       0.92262360       0.23579348
C        1.96155125      -1.28672162      -1.28430889      -0.09709878      -0.77951006      -0.20881434      -0.11075546      -0.26755312      -1.28536230
O        2.90411553      -2.01503635      -1.47324003      -0.44432252      -0.23775065      -0.36924428       0.35194715      -0.12689045       0.01707878
O        1.46459890      -0.49644054      -2.27564824      -0.13819833       0.07952650      -0.03831669       0.63881961      -0.58317256      -0.15391026
H       -2.10805411       0.39009410      -1.24139488      -0.00633936      -0.03303296      -0.11280940       0.39914716       1.22569822       0.37599343
H       -2.42001083       2.00832955      -0.98350901       0.08889560       0.01806009      -0.21818162      -0.27387362       0.24904510      -0.21838506
H       -2.52878889       0.73755918       1.03890965      -0.14293916       0.16884872      -0.06436791       0.21179665       0.46365704      -0.00455434
H       -1.21293253       1.96934186       1.11468588       0.04453851       0.05633586      -0.25033432      -0.16600713       0.52146645      -0.01227789
H       -0.02977406      -0.04190009      -1.12500735       0.15795218      -0.05683620       0.09468874      -0.01232836       0.07210342       0.54442916
H        1.04237057      -2.30738802       0.32639305      -0.04527058       0.03113216       0.11085472      -0.20183871       0.04711944       0.00783888
H        1.98442547      -0.85058622       0.70913006      -0.19148903      -0.19088185      -0.13327558      -0.19813531       0.04441421       0.39838038
H        1.99935060      -0.73680565      -3.07086707      -0.11227483      -0.17420089       0.22135749      -0.27640714       0.35798274       0.30110885
17
Properties=species:S:1:pos:R:3:momenta:R:3:forces:R:3 source=md-300K-step150 energy=-76.43642389446025 pbc="F F F"
N       -1.77635305       1.25744004      -0.90565826      -0.35150008       0.04902292      -0.56307950       0.12277920       1.76415676       1.42314836
C       -1.63466774       1.16617285       0.58003111       0.27323511      -0.07639954       0.45020126       0.19028160      -0.99075131      -0.58362987
C       -0.66698787       0.01909677       0.90565980      -0.33045146       0.07396074      -0.33897737       0.16357381       0.46409272      -0.19608938
O       -0.35580466      -0.37929104       2.01737147       1.30722449      -0.66555003      -0.78190574      -0.63951843       0.41825039      -0.32230406
N       -0.04544941      -0.51427021      -0.20571270      -1.14147153       0.10909484      -0.12323199       1.06151212      -1.06259598       0.72256754
C        1.15287692      -1.37348583      -0.04368404      -0.28890087      -0.96841047      -0.74013849      -0.82084540      -0.25319695      -1.91350321
C        1.93315857      -1.38527687      -1.37562143      -0.22496642       0.07723771       0.22505215      -1.32929239       0.88994970       0.13494362
O        2.89074969      -2.09543617      -1.53741514       0.02626652      -0.54597876      -0.40132002       0.19049758      -0.01283409       0.07557816
O        1.44077592      -0.51878451      -2.34169529      -0.18413962      -0.04733181      -0.79007843       1.71880363      -0.74833455       0.11785615
H       -2.16428100       0.43425302      -1.26827575      -0.19466165       0.04934408       0.05292817      -0.55021720      -1.18182344      -0.50608531
H       -2.38214079       2.03972768      -1.17266872      -0.09315238      -0.19995900      -0.10834584       0.30183307      -0.41173755       0.11661997
H       -2.62105239       0.98744274       1.04829165       0.00577773       0.03140685      -0.17497735       0.36959217       0.08791348      -0.03093267
H       -1.21173706       2.09717023       0.96091087      -0.04324337       0.14188148       0.09203431      -0.05489007       0.07898465       0.08267896
H        0.06931238       0.03375188      -1.05631029      -0.31018387      -0.03250869       0.03332504      -0.33966636       0.50324560      -0.52916228
H        0.83764437      -2.39152991       0.20430088       0.10672767      -0.06369542       0.14104693      -0.04646023       0.07072324       0.00269104
H        1.75522343      -1.02709528       0.75564091       0.00722030      -0.29378126      -0.01986016       0.60059446       0.46102265       0.79699036
H        2.13209828      -0.50824690      -3.06327323       0.19176079      -0.03282941       0.06383352      -0.93857757      -0.07706533       0.60863262
17
Properties=species:S:1:pos:R:3:momenta:R:3:forces:R:3 source=md-300K-step200 energy=-76.48371623981394 pbc="F F F"
N       -1.85141304       1.26476090      -0.83096438      -0.41605646      -0.10806615       0.61281024      -0.72672780      -0.52014373      -1.24921930
C       -1.61495347       1.10906185       0.55185623       0.30269898      -0.72039484       0.59426681       1.41343932       0.40903380       0.63385040
C       -0.60043794       0.01219416       0.80387179       0.62223838      -0.57818869      -0.69293111      -0.23563765      -0.82158953       0.89011745
O       -0.28188797      -0.38205110       1.92781907      -0.08515831       0.78190180      -0.54208915      -0.31953202       0.83199740      -0.97075404
N       -0.08280585      -0.62220376      -0.30109643      -0.07155186      -0.74594327      -1.24180801      -1.14633445       1.21212150      -0.88090332
C        1.00179351      -1.45775781      -0.22321414      -0.91803075      -0.40904919      -0.83012682       0.97891013      -1.04115683       1.04271370
C        1.84114000      -1.42538445      -1.44606724      -0.54891247      -0.11724013       0.10897048       1.33601092      -0.53077221       1.06633760
O        2.83515461      -2.12552874      -1.53659282       0.11674006      -0.79401398       0.04601176      -0.60755397      -0.02151217       0.01201986
O        1.50058800      -0.56640543      -2.37099983      -0.03357490       0.26331983      -0.91222393      -0.59705090       0.38664003      -1.16596415
H       -2.31492496       0.44798140      -1.27392076      -0.13479692       0.16308144      -0.03177948       0.35282097       0.69783069       0.51931421
H       -2.39005882       2.09887250      -1.04079569      -0.12801269       0.14020873       0.04601328      -0.06798556      -0.06215679      -0.03826154
H       -2.52622966       0.92326061       1.10471327       0.06146425       0.12219839      -0.07178190      -0.35990078      -0.06824512       0.23389145
H       -1.16982085       2.07550690       0.89565387       0.03497829      -0.03656699      -0.04497084      -0.28607752      -0.59752698       0.10828059
H       -0.28980256      -0.31113018      -1.27760140      -0.07837636       0.06751629      -0.18131824       0.04733845       0.18481071       0.30421857
H        0.63632679      -2.46522769      -0.06371938      -0.09896137      -0.00553008       0.07665557      -0.07459653      -0.38871317       0.07603534
H        1.56550960      -1.18634106       0.68554594      -0.00336819      -0.24510219       0.19844793       0.08642773      -0.04312658      -0.27492344
H        2.10109395      -0.75804899      -3.11298958       0.16440935      -0.11454182      -0.04526749       0.20644966       0.37250898      -0.30675338
17