10
Properties=species:S:1:pos:R:3:forces:R:3 source=etkdg-seed0 energy=-43.71306506112384 pbc="F F F"
N       -1.06744134       0.35178482       0.20998583       1.67796167       0.25810630      -1.27876263
C        0.19164781      -0.46007568       0.42652733      -0.27701662       0.32732471      -0.22151327
C        1.23721783      -0.06619887      -0.64284589      -1.08779888       0.84610449      -0.35632434
O        2.34110902      -0.64517378      -0.60838547      -1.16286893       0.83787735      -0.30290831
O        0.74141975       0.83088449      -1.40337586       2.07083110      -1.77346758       0.86855326
H       -1.26238825       1.01596971       0.95781631      -0.37676498       0.19720228       0.43073974
H       -1.86935511      -0.20350342      -0.08495088      -0.56687861      -0.18479605       0.10410767
H       -0.77086464       0.92068582      -0.62796731      -0.97344282      -0.02928861       0.60100246
H        0.54799898      -0.23196848       1.43397865       0.32237430      -0.29098131       0.03355620
H       -0.08934404      -1.51240460       0.33921730       0.37360377      -0.18808158       0.12154921
10
Properties=species:S:1:pos:R:3:forces:R:3 source=etkdg-seed1 energy=-43.71306506112384 pbc="F F F"
N       -1.06744134       0.35178482       0.20998583       1.67796167       0.25810630      -1.27876263
C        0.19164781      -0.46007568       0.42652733      -0.27701662       0.32732471      -0.22151327
C        1.23721783      -0.06619887      -0.64284589      -1.08779888       0.84610449      -0.35632434
O        2.34110902      -0.64517378      -0.60838547      -1.16286893       0.83787735      -0.30290831
O        0.74141975       0.83088449      -1.40337586       2.07083110      -1.77346758       0.86855326
H       -1.26238825       1.01596971       0.95781631      -0.37676498       0.19720228       0.43073974
H       -1.86935511      -0.20350342      -0.08495088      -0.56687861      -0.18479605       0.10410767
H       -0.77086464       0.92068582      -0.62796731      -0.97344282      -0.02928861       0.60100246
H        0.54799898      -0.23196848       1.43397865       0.32237430      -0.29098131       0.03355620
H       -0.08934404      -1.51240460       0.33921730       0.37360377      -0.18808158       0.12154921
10
Properties=species:S:1:pos:R:3:forces:R:3 source=etkdg-seed2 energy=-43.713063605314694 pbc="F F F"
N       -1.06659599      -0.37437778      -0.17173410       2.04808725      -0.56789812      -0.01751022
C        0.00973475       0.63309859       0.17151109      -0.16872424      -0.43363974      -0.12821814
C        1.39264050      -0.05300833       0.07799770      -0.86363963      -1.07670524      -0.34783094
O        2.39714417       0.64089837       0.33185079      -0.95379525      -1.05598218      -0.34821031
O        1.23319252      -1.27288330      -0.26179812       1.56962920       2.28166665       0.71982636
H       -1.56012585      -0.16961289      -1.03943024      -0.52266354       0.11723087      -0.28186911
H       -0.46501451      -1.22073484      -0.36028417      -1.13300910       0.15774890      -0.03252414
H       -1.66967403      -0.61569804       0.61341489      -0.55697444      -0.02249970       0.23586842
H       -0.19316227       0.98197635       1.18693896       0.29516828       0.31886197       0.03049140
H       -0.07813928       1.45034186      -0.54846681       0.28592146       0.28121660       0.16997668
10
Properties=species:S:1:pos:R:3:forces:R:3 source=etkdg-seed3 energy=-43.71306266570553 pbc="F F F"
N       -1.11233995       0.18542643      -0.18866659       1.93543921       0.87016222      -0.12003479
C        0.10826284      -0.60173724       0.23773166      -0.23429117       0.38612929      -0.17018539
C        1.36794542       0.27421765       0.04325879      -1.02121831       0.88730332      -0.44269848
O        1.02031153       1.41106041      -0.42119693       1.90660942      -1.92213656       0.92635297
O        2.46871034      -0.22566764       0.34888358      -1.10706538       0.85305742      -0.43904054
H       -0.64972746       1.08857748      -0.47863251      -1.09506442      -0.33233069       0.00776799
H       -1.57157677      -0.18549685      -1.01927775      -0.49930370      -0.22590057      -0.25696001
H       -1.74246550       0.41503806       0.57854742      -0.55283720      -0.03779070       0.24354289
H       -0.03428269      -0.86545528       1.28849805       0.34107809      -0.26458547       0.05820816
H        0.14516224      -1.49596301      -0.38914572       0.32665348      -0.21390827       0.19304720
10
Properties=species:S:1:pos:R:3:forces:R:3 source=etkdg-seed4 energy=-43.71306279359904 pbc="F F F"
N       -1.05817625       0.24583873      -0.35651696       1.92011825       0.82323487       0.39103839
C        0.06436348      -0.63608269       0.14690377      -0.19994471       0.41574607      -0.14177022
C        1.33457502       0.22441633       0.34188724      -0.92402287       0.97772550      -0.46516375
O        1.07525633       1.43276685       0.02310494       1.70763042      -2.10393405       0.91941516
O        2.36081445      -0.35069537       0.75547458      -1.00893520       0.94580909      -0.48327559
H       -0.55323214       1.17168705      -0.39663515      -1.07582901      -0.29797259      -0.25198983
H       -1.82165480       0.35989141       0.30868251      -0.58846821      -0.06292678       0.12690277
H       -1.35237041       0.03387811      -1.30884107      -0.44147340      -0.16504722      -0.37973505
H       -0.27110825      -1.06965181       1.09213151       0.32526049      -0.28007929       0.07401978
H        0.22153257      -1.41204860      -0.60619136       0.28566423      -0.25255559       0.21055834
10
Properties=species:S:1:pos:R:3:forces:R:3 source=etkdg-seed5 energy=-43.71306419933924 pbc="F F F"
N       -1.13502397       0.00568096      -0.13771842       1.81986962       0.87248968      -0.66654309
C        0.18632769      -0.43234316       0.45682154      -0.28418623       0.25794767      -0.29268044
C        1.33056887       0.36456033      -0.21218709      -1.13522138       0.53567965      -0.67115462
O        0.83563271       1.16444203      -1.07486113       2.15398211      -1.19650517       1.45483991
O        2.49489931       0.12490398       0.16447571      -1.21652198       0.50016149      -0.64496197
H       -1.59977460      -0.71742726      -0.68500271      -0.48630661      -0.34966192      -0.08705962
H       -1.73988659       0.49549421       0.52002200      -0.53020260       0.03024151       0.29037589
H       -0.79037366       0.72846462      -0.82515788      -1.05048535      -0.37530436       0.25556309
H        0.13524214      -0.23015432       1.52942837       0.37044856      -0.18869440       0.12997456
H        0.28238810      -1.50362138       0.26417961       0.35862387      -0.08635414       0.23164628
10
Properties=species:S:1:pos:R:3:forces:R:3 source=etkdg-seed6 energy=-43.713062557404214 pbc="F F F"
N       -1.09114945       0.33202898      -0.08017403       1.99232863       0.48184857      -0.56211500
C        0.06032033      -0.55080951       0.35113419      -0.20255041       0.37825041      -0.22103720
C        1.38136429       0.03782673      -0.19683154      -0.94540191       0.94179823      -0.49539094
O        1.12515706       1.09998046      -0.85650347       1.74418544      -1.99422720       1.08109309
O        2.43629037      -0.57180018       0.06861325      -1.03342126       0.92430061      -0.47302055
H       -1.72726933      -0.11431180      -0.73936171      -0.56122698      -0.18380806      -0.13271559
H       -0.56029917       1.06471675      -0.62344046      -1.11467018      -0.13048966       0.22391856
H       -1.54901847       0.81670053       0.69044044      -0.50539072       0.10782342       0.31515827
H       -0.13126937      -1.54591990      -0.05755224       0.32059408      -0.22346759       0.19238180
H        0.05587373      -0.56841205       1.44367556       0.30555332      -0.30202873       0.07172755
10
Properties=species:S:1:pos:R:3:forces:R:3 source=etkdg-seed7 energy=-43.71306306244754 pbc="F F F"
N       -1.14010679       0.07312914       0.04568274       1.80876788       1.06252117       0.34189947
C        0.19659145      -0.58932400      -0.21065118      -0.29105475       0.36160508       0.13222318
C        1.32841359       0.41104223       0.12125767      -1.15190972       0.78237656       0.29526894
O        0.81382872       1.51006023       0.51665846       2.18955369      -1.72560371      -0.64501679
O        2.50307195       0.02307547      -0.03569605      -1.23276681       0.73961497       0.28159640
H       -1.66050098      -0.33654915       0.82011882      -0.50254530      -0.27350338       0.19749036
H       -1.68889583       0.23232013      -0.79805025      -0.51144605      -0.09530337      -0.30938756
H       -0.80975266       1.02051216       0.37294870      -1.04686405      -0.44155667      -0.13693348
H        0.21379770      -0.87344654      -1.26561795       0.37032531      -0.22908157      -0.01029430
H        0.24355284      -1.47081966       0.43334904       0.36793981      -0.18106908      -0.14684621
10
Properties=species:S:1:pos:R:3:forces:R:3 source=etkdg-seed8 energy=-43.71306256910511 pbc="F F F"
N       -1.07444539      -0.38103327      -0.08751402       2.03083173      -0.60071801       0.17984204
C        0.02562632       0.65547177      -0.00497403      -0.17937231      -0.44795825      -0.01042089
C        1.38927710      -0.06351773       0.11923563      -0.88943783      -1.10951280      -0.06376486
O        1.19941630      -1.32563001       0.11680123       1.62465437       2.35280206       0.11296675
O        2.40974664       0.64875094       0.19854940      -0.97893169      -1.08748489      -0.07168222
H       -1.54952346      -0.40586890      -0.98866935      -0.51501103       0.04946817      -0.31414700
H       -1.69529698      -0.38725130       0.72050981      -0.56066969       0.05530740       0.22123264
H       -0.49500158      -1.26110951      -0.02849980      -1.12739408       0.17036216      -0.09807172
H       -0.18146149       1.26990037       0.87455363       0.30381948       0.30807853      -0.05009617
H       -0.02833745       1.25028764      -0.91999249       0.29151104       0.30965564       0.09414143
10
Properties=species:S:1:pos:R:3:forces:R:3 source=etkdg-seed9 energy=-43.713063487489386 pbc="F F F"
N       -1.08696389      -0.26222796       0.23879741       1.92365403      -0.81723104      -0.38618190
C        0.08994800       0.64870731      -0.03758784      -0.21953313      -0.42578558       0.05881822
C        1.35037268      -0.21375282      -0.28132680      -0.97844959      -1.00633180       0.23686613
O        1.03995733      -1.44760517      -0.18017861       1.81956013       2.16234894      -0.44874732
O        2.41743757       0.38354821      -0.52541559      -1.06366376      -0.97474085       0.25409328
H       -0.60829451      -1.19977233       0.16358257      -1.08404897       0.29154344       0.22243912
H       -1.80208560      -0.24210105      -0.48686994      -0.57593640       0.10291411      -0.15515271
H       -1.44511897      -0.19440429       1.19038676      -0.46411666       0.11784979       0.37022817
H        0.20977705       1.28883823       0.83982293       0.30620441       0.27270745      -0.14695303
H       -0.16502965       1.23876987      -0.92121090       0.33632995       0.27672555      -0.00540997
10
Properties=species:S:1:pos:R:3:momenta:R:3:forces:R:3 source=md-300K-step50 energy=-43.70272331073486 pbc="F F F"
N       -1.10352755       0.32649736       0.35895324       0.40831204      -0.97783715       1.29438831      -0.41700335      -0.91961071       1.53256203
C        0.25360874      -0.38900085       0.41166557      -0.16517977       0.50630774       0.23113318      -1.84760757       0.89120147       0.80919240
C        1.17218408       0.04581905      -0.61668059      -0.54929324       0.66373099      -0.11560393       2.75555300      -0.51353477      -0.99300539
O        2.26185889      -0.55702648      -0.71686241      -0.05265916       0.12108191      -0.47849578      -0.78326556      -0.14950119       0.43371730
O        0.91588349       0.99211665      -1.32937635       0.78240792       1.69107696      -0.02489698      -1.17018401       1.08913436      -0.45013439
H       -1.31987555       0.54788250       1.40540395      -0.08937402      -0.10036883      -0.27391513      -0.04314502       0.03273533      -1.99321073
H       -1.86977585      -0.35004107       0.02332168       0.09823501       0.25483836       0.05412142       0.97187781       1.13137795       0.25863094
H       -1.08024882       1.18822593      -0.23796438       0.12852448      -0.01973498       0.23732134       0.11601662      -0.41333710       0.31256972
H        0.70619119      -0.19023631       1.38686314      -0.09793221       0.07552323       0.07191933       0.19300869      -0.19784030       0.07441000
H        0.04967964      -1.43398413       0.32025406      -0.09350339       0.04261129       0.03510021       0.22474940      -0.95062504       0.01526812
10
Properties=species:S:1:pos:R:3:momenta:R:3:forces:R:3 source=md-300K-step100 energy=-43.74313713526216 pbc="F F F"
N       -1.07775111       0.30275105       0.47959381       0.98966109       0.30610734      -0.31473245       3.64060687       0.43134109      -1.27223500
C        0.31604443      -0.39104222       0.47411327       0.97454957       0.68622115      -0.16188408      -1.31125937       1.81515685      -0.05432534
C        1.20386268       0.18610392      -0.63578413      -0.19792771      -0.35949519       0.97576287       0.27918282      -0.30962635      -0.41094994
O        2.21303158      -0.52871318      -0.76912833      -0.71467106       0.83387144      -0.60662341      -0.42437225       0.75945536      -0.29072038
O        0.90740110       1.22220090      -1.27846311      -0.38101485       0.99270890       0.88754656       0.10456376      -1.37312575       1.09911839
H       -1.56379537       0.19340662       1.29831739      -0.12727706      -0.36907920      -0.00999742      -1.39006779      -0.33612251       3.00328763
H       -1.64150095      -0.10819771      -0.20251619      -0.09979747       0.14951840      -0.02195423      -1.17970840      -0.72973492      -1.88988156
H       -0.99104697       1.30733232       0.28080794      -0.31481599      -0.00992887       0.34879837       0.08108630      -0.00186350      -0.10061040
H        0.80668602      -0.15672040       1.42367424       0.13934341       0.05104912      -0.00285683       0.04061275      -0.16840237       0.02858450
H        0.20184861      -1.47368675       0.40634745       0.09252361      -0.07849871      -0.08799883       0.15935531      -0.08707790      -0.11226790
10
Properties=species:S:1:pos:R:3:momenta:R:3:forces:R:3 source=md-300K-step150 energy=-43.75424519556119 pbc="F F F"
N       -0.97228572       0.27217525       0.49685401       0.14135408       0.07602413       0.22794206      -3.35015132       0.52378620      -0.82849449
C        0.35773492      -0.24847833       0.53171660       0.61551685      -0.67757966       0.91601738       0.68368168      -1.83957376       1.11199336
C        1.23056673       0.23872211      -0.58145979       0.15206180       0.83431747       0.34544107      -0.88415176       1.95531687      -1.17318430
O        2.21026701      -0.43423404      -0.91417648       0.60861025       0.10554940      -1.28674303      -0.35763432       0.34618664       0.17711468
O        0.80636633       1.32777452      -1.08589458      -0.73148578       1.31168450       0.68284452       1.04359206      -1.87944031       0.69775420
H       -1.79965830      -0.27963642       1.00581506      -0.21850307       0.07580070      -0.26722047       2.07461083       1.10041910      -0.91214003
H       -1.27264875       0.35622542      -0.53873943      -0.01852805       0.31800237      -0.14837907       0.48142988      -0.10892200       1.53183200
H       -0.95484757       1.25773855       0.85332445      -0.28839422       0.23121278       0.19457842      -0.13095370      -0.49883171      -0.24175884
H        0.81032926       0.01135451       1.51354497       0.00911533      -0.00595933       0.09990522      -0.01916465      -0.30874151      -0.42791340
H        0.24762807      -1.36468060       0.46345585       0.08207969      -0.12000489       0.21726977       0.45874130       0.70980047       0.06479681
10
Properties=species:S:1:pos:R:3:momenta:R:3:forces:R:3 source=md-300K-step200 energy=-43.7329482943589 pbc="F F F"
N       -0.93051020       0.29871154       0.49766681       1.32396595      -0.45148909       0.34320152       0.36823698       2.23059883       0.24757320
C        0.46153622      -0.23750362       0.59752488      -0.13333536       0.73399329      -0.59311818      -0.76975206      -1.49229857       0.59391053
C        1.18309568       0.30766779      -0.50890948      -0.63970524       0.34105979       0.51072516       2.73149184       0.30162617      -2.36262356
O        2.15950817      -0.26272457      -1.05384268      -0.09005746       0.90898751      -0.74104366      -0.91315131      -0.28061270       1.07496824
O        0.80101578       1.39017219      -0.90885361      -0.01030986       0.55220104       1.26907538      -0.65922467       1.27573930      -0.23960476
H       -1.64476556      -0.36988949       0.57317679       0.11282509       0.13272743      -0.11825596      -1.41692508      -1.77978117       0.26517271
H       -1.12234063       0.81330893      -0.39510310       0.01979787      -0.00867554       0.50781439       0.45018799      -0.27800955       0.11436723
H       -1.12640334       1.01018700       1.22920840       0.00080210      -0.39663389      -0.11557593       0.24065301      -0.18441466      -0.07024451
H        0.96293627       0.00408262       1.54025322      -0.10687796       0.09194031      -0.12774747      -0.06460912      -0.00625680       0.10538815
H        0.45037073      -1.33565203       0.46031191      -0.13381276       0.19280573       0.02276793       0.03309242       0.21340914       0.27109278
10
Properties=species:S:1:pos:R:3:momenta:R:3:forces:R:3 source=md-300K-step250 energy=-43.62839857258871 pbc="F F F"
N       -0.92920639       0.26201602       0.64535169       0.03020107      -0.65234883       0.84857782      -0.95115228      -2.52330472       0.03049542
C        0.53998303      -0.29403576       0.58448094       0.84731813       0.41591776      -0.50272581      -1.10598240       1.67505609      -0.72923541
C        1.21491433       0.46014922      -0.57249697       0.04970054      -0.23371349       0.32555096       0.50810066       0.11936723      -0.26229060
O        2.14244541      -0.21137107      -1.11095802      -0.68282061       1.00412359      -0.18033864      -1.50004589       1.51212028       0.53004332
O        0.77764524       1.63090309      -0.80341690       0.25132830       1.30119200       0.19875203       1.02811948      -2.30453709       0.18471302
H       -1.71888410      -0.38751698       0.32502387      -0.13530841      -0.02726336      -0.06956545       1.32925927       0.27209575       0.41875857
H       -1.05481113       1.01881512       0.02301223       0.00817000       0.30952441       0.11823326       0.45084872       1.48038305      -1.48277513
H       -1.27974266       0.67401785       1.50526092      -0.21403765      -0.08853950       0.39684406       0.35521157      -0.07419722       1.04985035
H        1.06667570      -0.04529110       1.49339390       0.13946926      -0.05733383       0.00882454       0.15546670       0.10284057       0.40166622
H        0.64729777      -1.36661082       0.45367234       0.04094428       0.07449153      -0.20954465      -0.26982582      -0.25982394      -0.14122575
10
Properties=species:S:1:pos:R:3:momenta:R:3:forces:R:3 source=md-300K-step300 energy=-43.717986125454296 pbc="F F F"
N       -0.83772397       0.17790738       0.78690801      -0.59140074      -0.22550073       1.27014605      -3.24169621       2.68296042       1.76172661
C        0.48902568      -0.20470429       0.54962365       0.53145067      -0.64794645       0.25446712       1.54903582      -0.61239781       0.25665679
C        1.19627250       0.53578088      -0.53791563      -0.36271008       0.81252080      -0.26000970      -0.18235033       2.43627177      -1.27331680
O        2.07820283      -0.03629852      -1.18473497       0.45419756       0.40900321      -0.96404467      -0.27160143      -0.24565039       0.40382117
O        0.85696815       1.74022639      -0.75111876       0.14852540       1.55447239       0.46968553       0.22166909      -1.95367425       0.68924390
H       -1.48658521      -0.29150017       0.15148596       0.01527036       0.21147181      -0.12577225      -0.20458629      -0.10238219      -0.49151368
H       -1.07209616       1.25897798       0.71013798       0.16323992       0.10977899       0.31338358       0.96770246      -2.17153348      -0.00054097
H       -1.17125048      -0.10110098       1.77295985      -0.02283759      -0.23833554      -0.23029056       0.48483260       0.27751533      -1.26512296
H        1.03405351      -0.09099074       1.48905155      -0.03719511       0.11105588       0.08811660       0.37921597       0.06474566      -0.00193430
H        0.48767759      -1.26598445       0.31738354       0.02829904      -0.10010251       0.09625502       0.29777834      -0.37585506      -0.07901976
10
Properties=species:S:1:pos:R:3:momenta:R:3:forces:R:3 source=md-300K-step350 energy=-43.80959565872649 pbc="F F F"
N       -0.84600023       0.17917176       0.89665627       0.84078510       0.60408424       0.21684214       0.37638400      -1.16382670      -2.95606197
C        0.60450609      -0.15648526       0.54726726       0.05705000       0.98295837      -0.20477699      -0.62668845      -1.13181888       1.63321437
C        1.19423272       0.64835046      -0.51869560      -0.24968440       0.44430421       0.98184751       1.69924321      -0.62506578      -2.25648739
O        2.04586547       0.07536307      -1.26475025      -0.28659475       0.60840587      -0.55525334      -1.23890337       0.69721263       1.25128843
O        0.83441612       1.80542425      -0.64839416      -0.35536323      -0.16182527       0.71525324      -0.35171198       0.61481590       0.20095018
H       -1.34047609       0.49741444       0.03906870       0.36790129       0.12254380       0.04859084       0.32877693      -0.17081600       0.16120110
H       -0.93219349       0.91528341       1.51120581       0.05648537      -0.39093695       0.19837119       0.14759973       2.45661631       1.91392613
H       -1.41747061      -0.55920028       1.28196077       0.15139089      -0.44474637      -0.39740578      -0.14747272      -0.96269006       0.32913082
H        1.22194697      -0.04722083       1.45965003      -0.03033107       0.06086837       0.06771045      -0.16214027      -0.05680790      -0.28447950
H        0.67443736      -1.22586356       0.26790743      -0.23272812       0.12233313      -0.18136401      -0.02508709       0.34238048       0.00731782
10
Properties=species:S:1:pos:R:3:momenta:R:3:forces:R:3 source=md-300K-step400 energy=-43.7168963050902 pbc="F F F"
N       -0.76417129       0.21894940       0.87688808      -0.40564730       0.17598151       0.29113698       1.37960607      -0.26010470       2.68578584
C        0.73145833      -0.19605716       0.59912255       1.06624494      -0.62745197      -0.13185015      -1.97562150       0.85078574       0.71923098
C        1.18089459       0.73337384      -0.50194369       0.40767743      -0.42198689       0.10119076       0.98430762       0.22618272      -0.99543206
O        1.99103579       0.18128403      -1.28839873      -0.52648864       1.11974712       0.07414704      -0.95141604       0.99773128       0.73226951
O        0.73876479       1.91256776      -0.54169654      -0.74764669       0.98296537       0.61109206       0.61042365      -1.84419816       0.15134064
H       -0.92447442       1.09260529       0.37655463       0.33105496       0.30149698       0.05890453      -0.31918974       0.37238748      -0.41902780
H       -0.80154639       0.50837218       1.93676807       0.14604875      -0.01499059       0.28929125      -0.25826304      -0.70353841      -2.10919776
H       -1.53219025      -0.46380307       0.67111764      -0.03348165       0.06525805      -0.36703844       0.54904046       0.26148938      -0.02239099
H        1.32522353      -0.06818327       1.52795683       0.02072593       0.30963985      -0.08930442      -0.05439077       0.03823031      -0.53744763
H        0.80148613      -1.25145245       0.32273054       0.05268730       0.01007629       0.03066080       0.03550330       0.06103435      -0.20513072
10
Properties=species:S:1:pos:R:3:momenta:R:3:forces:R:3 source=md-300K-step450 energy=-43.675396445030486 pbc="F F F"
N       -0.65851932       0.24073979       0.94875814      -0.51006299      -0.14818777       0.54814172       0.36508869       1.94255725      -1.36031713
C        0.72885821      -0.05425452       0.63319439       0.79467759       0.29221608       0.76232039      -0.57204925      -1.32020947       0.79171471
C        1.17527785       0.73157085      -0.50393729      -0.05202200       0.56713001       0.07036711      -0.47250589       4.08974836       0.25479800
O        1.97880119       0.34597718      -1.33385580       0.47481014       0.55127490      -0.64143471       0.23609749      -0.73146183      -0.35420102
O        0.68846023       1.90726938      -0.44806739      -0.55194634       0.38338330       0.39512319       0.67580241      -1.67477038      -0.48476924
H       -0.76175436       1.33275466       1.02750636       0.05961765      -0.11869843       0.32062801      -0.03728255      -1.83687497      -0.08225240
H       -0.90197450      -0.26357852       1.79129758       0.29455012      -0.23898224      -0.38694392      -0.75549678      -0.27543511       0.72783684
H       -1.13310382      -0.13194639       0.09474811      -0.02783546       0.43343654      -0.17307892      -0.70344872       0.47663704       0.60993589
H        1.30607531       0.04548105       1.55336761      -0.05829549       0.11601189       0.04156317       0.60862443       0.17949874      -0.13481561
H        0.70920449      -1.08319657       0.31699148      -0.11986658       0.01704402      -0.08951687       0.65517017      -0.84968963       0.03206997
10
Properties=species:S:1:pos:R:3:momenta:R:3:forces:R:3 source=md-300K-step500 energy=-43.63982416581661 pbc="F F F"
N       -0.66831537       0.19183906       1.02749031       0.93658784      -0.25372863       0.31584538       1.97285514      -2.83615478      -2.26134226
C        0.84693971      -0.05920175       0.63199023      -0.00120392       0.50766081       0.08677468      -2.32749266       0.09286170       1.38363370
C        1.17806514       0.89223093      -0.44935064      -1.16227113       0.73607279       0.34663033       1.36115644      -0.35852570      -2.24287246
O        1.96311538       0.45360711      -1.33923853       0.14137536       0.75422181       0.13854192      -1.01543362       0.67663834       1.31865337
O        0.64527597       2.00470146      -0.44258311       0.44850777       0.37297223       0.01071045       0.12635873      -0.34458223       0.24036404
H       -0.68462790       0.83837497       1.75772125      -0.18838980      -0.17761694       0.19387995      -0.45124040       1.46141582       1.81482298
H       -1.22862762      -0.69820821       1.23376125      -0.00399709      -0.37676751      -0.23612870       0.56512939       1.19474386      -0.28609661
H       -0.94081367       0.68235067       0.16755420       0.29595848       0.20801858       0.14619522      -1.07300209       0.06484598      -0.09385190
H        1.37502292       0.20942167       1.52796743      -0.04702678       0.06735745       0.03891543       0.82048216      -0.04231106       0.37772546
H        1.06098422      -1.10910170       0.40481299      -0.12327935      -0.02855128      -0.21474586       0.02118691       0.09106807      -0.25103631
10
Properties=species:S:1:pos:R:3:momenta:R:3:forces:R:3 source=md-300K-step550 energy=-43.73367888633153 pbc="F F F"
N       -0.61518242       0.12676278       1.04494798      -0.24060248      -0.83970738       0.23814052       2.24607666       0.72891342       2.23609262
C        0.87412543       0.02155884       0.62367194       0.26274486      -0.30074756      -0.29984665      -1.95571820      -0.87680128       1.35628846
C        1.17090706       1.00700526      -0.41845657       1.20207757       0.46954709      -0.13231762       0.95627093      -0.12408256      -2.08518445
O        1.95114561       0.54790815      -1.29177634      -0.19169042       0.51920846       0.25599179      -0.68784590       0.90703755       0.79093387
O        0.62447037       2.11651375      -0.41072325      -0.68668874       1.10023924       0.36986621       0.23137216      -0.55766261       0.29907982
H       -0.56919723       0.14170107       2.14401761      -0.08554096      -0.08356632       0.07229796      -0.64954957       0.15039858      -2.15969657
H       -1.12621346      -0.70444239       0.75528354      -0.25207754       0.36146124      -0.01533808      -0.60884013      -0.17668532      -0.31812805
H       -0.98335698       1.02910338       0.65186158      -0.01343221       0.24200814       0.38923468      -0.10143114      -0.49884259       0.22661019
H        1.51419190       0.12197211       1.50840488       0.04202652       0.23224764       0.06841543       0.20887893       0.19178089      -0.20982132
H        1.00337858      -1.00834101       0.25406683       0.25225817       0.06505113      -0.13987728       0.36078626       0.25594391      -0.13617457
10