33
Properties=species:S:1:pos:R:3:forces:R:3 source=etkdg-seed0 energy=-154.6598898690773 pbc="F F F"
C       -3.28262976      -0.80121552      -0.69720308       0.09950411      -0.04905905      -0.13508793
C       -3.22660855       0.62973879      -0.15611341      -0.41931213      -0.30605867       0.28687809
C       -4.62004404       1.05960620       0.30920745      -0.08814988       0.14339044      -0.05664762
C       -2.22260127       0.76950337       1.00491163       0.44242198       0.13073751      -0.05464268
C       -0.78295379       0.57465576       0.59291972       0.22416793      -0.08397421      -0.05410890
C       -0.08761224      -0.58362767       0.95696046       0.36817600       0.08709814      -0.22131016
C        1.24338054      -0.76423169       0.57188657      -0.25037400       0.22690540      -0.02277738
C        1.90805494       0.20829243      -0.18907589      -0.35745457       0.11003139       0.11685616
C        3.35558960       0.03326141      -0.61159842       0.12045545       0.18777354      -0.07265927
C        3.57899074      -1.23998205      -1.43215869       0.04095108      -0.08401414      -0.04595126
C        4.30057486       0.13347022       0.57229792       0.08978966      -0.04072727       0.39306239
O        4.77374796       1.16635094       1.02292788      -0.53570196      -0.20000778      -0.70069033
O        4.57613029      -1.04322220       1.17018198       0.03611234      -0.00878331       0.14744859
C        1.21046551       1.37117285      -0.54476673      -0.33705087      -0.13592453       0.18782479
C       -0.12041332       1.55129138      -0.15944571       0.33889337      -0.23154492      -0.01760446
H       -2.32177924      -1.10283043      -1.12569693      -0.08599780       0.00287853       0.10398943
H       -4.03383614      -0.88636230      -1.48987940       0.09068778      -0.04397205       0.11925264
H       -3.54311060      -1.51459991       0.09208026       0.04422322       0.12196760      -0.11845750
H       -2.93045021       1.29300696      -0.97871079       0.20527516       0.14790264      -0.07226461
H       -5.34248960       0.99241205      -0.51116866       0.04415419      -0.00130260       0.14643745
H       -4.97827727       0.42769254       1.12909509       0.06677850       0.09536178      -0.13040797
H       -4.61023921       2.09719121       0.65945238      -0.05050807      -0.14332019      -0.00295233
H       -2.30831283       1.76919840       1.45176545      -0.06176038      -0.09669937      -0.02673017
H       -2.47967355       0.06579755       1.80761519       0.01046694       0.06445315      -0.11520090
H       -0.57770780      -1.35721265       1.54386617       0.09998221       0.35106005      -0.22049369
H        1.75684062      -1.67359862       0.87799923      -0.06850438       0.43065204      -0.17546609
H        3.63566032       0.86431869      -1.27422802      -0.14823607       0.20985527       0.07457734
H        4.62522144      -1.31444626      -1.74920708      -0.15740746      -0.02699546       0.04567254
H        2.95183657      -1.23856665      -2.33061030       0.08711859      -0.04071061       0.12738172
H        3.34552244      -2.14899837      -0.86738626       0.03217245       0.23456528       0.01125468
H        5.14566352      -0.78877730       1.92654829       0.08782103      -0.29262417       0.09242070
H        1.69801710       2.15272326      -1.12398732      -0.08243213      -0.37625866       0.23138571
H       -0.63695700       2.46395721      -0.44847899       0.11373771      -0.38265576       0.15901104
33
Properties=species:S:1:pos:R:3:forces:R:3 source=etkdg-seed1 energy=-154.6598898690773 pbc="F F F"
C       -3.28262976      -0.80121552      -0.69720308       0.09950411      -0.04905905      -0.13508793
C       -3.22660855       0.62973879      -0.15611341      -0.41931213      -0.30605867       0.28687809
C       -4.62004404       1.05960620       0.30920745      -0.08814988       0.14339044      -0.05664762
C       -2.22260127       0.76950337       1.00491163       0.44242198       0.13073751      -0.05464268
C       -0.78295379       0.57465576       0.59291972       0.22416793      -0.08397421      -0.05410890
C       -0.08761224      -0.58362767       0.95696046       0.36817600       0.08709814      -0.22131016
C        1.24338054      -0.76423169       0.57188657      -0.25037400       0.22690540      -0.02277738
C        1.90805494       0.20829243      -0.18907589      -0.35745457       0.11003139       0.11685616
C        3.35558960       0.03326141      -0.61159842       0.12045545       0.18777354      -0.07265927
C        3.57899074      -1.23998205      -1.43215869       0.04095108      -0.08401414      -0.04595126
C        4.30057486       0.13347022       0.57229792       0.08978966      -0.04072727       0.39306239
O        4.77374796       1.16635094       1.02292788      -0.53570196      -0.20000778      -0.70069033
O        4.57613029      -1.04322220       1.17018198       0.03611234      -0.00878331       0.14744859
C        1.21046551       1.37117285      -0.54476673      -0.33705087      -0.13592453       0.18782479
C       -0.12041332       1.55129138      -0.15944571       0.33889337      -0.23154492      -0.01760446
H       -2.32177924      -1.10283043      -1.12569693      -0.08599780       0.00287853       0.10398943
H       -4.03383614      -0.88636230      -1.48987940       0.09068778      -0.04397205       0.11925264
H       -3.54311060      -1.51459991       0.09208026       0.04422322       0.12196760      -0.11845750
H       -2.93045021       1.29300696      -0.97871079       0.20527516       0.14790264      -0.07226461
H       -5.34248960       0.99241205      -0.51116866       0.04415419      -0.00130260       0.14643745
H       -4.97827727       0.42769254       1.12909509       0.06677850       0.09536178      -0.13040797
H       -4.61023921       2.09719121       0.65945238      -0.05050807      -0.14332019      -0.00295233
H       -2.30831283       1.76919840       1.45176545      -0.06176038      -0.09669937      -0.02673017
H       -2.47967355       0.06579755       1.80761519       0.01046694       0.06445315      -0.11520090
H       -0.57770780      -1.35721265       1.54386617       0.09998221       0.35106005      -0.22049369
H        1.75684062      -1.67359862       0.87799923      -0.06850438       0.43065204      -0.17546609
H        3.63566032       0.86431869      -1.27422802      -0.14823607       0.20985527       0.07457734
H        4.62522144      -1.31444626      -1.74920708      -0.15740746      -0.02699546       0.04567254
H        2.95183657      -1.23856665      -2.33061030       0.08711859      -0.04071061       0.12738172
H        3.34552244      -2.14899837      -0.86738626       0.03217245       0.23456528       0.01125468
H        5.14566352      -0.78877730       1.92654829       0.08782103      -0.29262417       0.09242070
H        1.69801710       2.15272326      -1.12398732      -0.08243213      -0.37625866       0.23138571
H       -0.63695700       2.46395721      -0.44847899       0.11373771      -0.38265576       0.15901104
33
Properties=species:S:1:pos:R:3:forces:R:3 source=etkdg-seed2 energy=-154.656070486282 pbc="F F F"
C       -3.13559642      -1.51493308      -0.39725373       0.12664545      -0.12295952      -0.00171940
C       -3.17072791      -0.42157160       0.67365024      -0.47716468       0.04625511      -0.34825747
C       -4.62340343      -0.09102017       1.02504039      -0.07089368      -0.00663138       0.16261736
C       -2.44015282       0.85698708       0.21849490       0.44495172       0.09503148       0.09133126
C       -0.94948067       0.68208804       0.05344673       0.22754506      -0.04856429      -0.07551897
C       -0.37255565       0.64050917      -1.22035176       0.41814243      -0.09031310       0.13622116
C        1.00647827       0.47026932      -1.37103475      -0.33272021       0.03893779       0.25329840
C        1.84145603       0.33970682      -0.25115884      -0.42287955      -0.04436390       0.00085145
C        3.34052580       0.16677461      -0.44125449      -0.34511908       0.10155366       0.66630498
C        4.13170473       1.30302774       0.20721589       0.08906615       0.09586029      -0.02500905
C        3.86424755      -1.16491832       0.06933850       0.22059605      -0.31017384      -0.02419922
O        3.45352489      -1.82983292       1.00596668      -0.37243927       0.78795375      -0.28546491
O        4.95022539      -1.58377235      -0.61887287       0.00030987      -0.19980011       0.07138806
C        1.25797267       0.38313739       1.02318070      -0.26817156       0.00841789      -0.18182681
C       -0.12092676       0.55170787       1.17353073       0.34410534      -0.05615965      -0.23386132
H       -2.11071770      -1.84103018      -0.59994381      -0.10527482       0.07737806      -0.02845179
H       -3.69886116      -2.39563778      -0.07015459       0.06343421       0.10466180      -0.09796320
H       -3.57433612      -1.16435648      -1.33764551       0.07152912      -0.04583524       0.15422329
H       -2.69040062      -0.81593849       1.57811723       0.22020719       0.03583685       0.14036714
H       -5.15174142      -0.98354722       1.37677080       0.01172757       0.13750592      -0.06556755
H       -4.66986534       0.65856081       1.82210986      -0.05133697      -0.07276252      -0.12292113
H       -5.16314264       0.30241320       0.15685085       0.09515254      -0.06311863       0.13211952
H       -2.87874596       1.22435652      -0.71868348       0.03495076      -0.07460319       0.10371942
H       -2.60170965       1.65806598       0.95239228      -0.05777321      -0.07660269      -0.06907188
H       -0.99404860       0.73572186      -2.10787378       0.15316983      -0.02818876       0.39495053
H        1.42102639       0.44206654      -2.37656509      -0.04134977      -0.01009721       0.44393748
H        3.54361071       0.18874060      -1.52083326      -0.02432966      -0.05908214      -0.05123385
H        5.19935300       1.21213233      -0.02203090      -0.14988612       0.01523871       0.04750193
H        4.03575547       1.29597504       1.29881420      -0.05429099      -0.05324159      -0.20567776
H        3.79036131       2.27872090      -0.15558836       0.04602902      -0.13118922       0.07477835
H        5.18429066      -2.43132144      -0.18472005       0.25750679      -0.05806659      -0.17628602
H        1.87045842       0.27114609       1.91587706      -0.11542512       0.00209902      -0.45600951
H       -0.54457843       0.57577210       2.17510734       0.06398556       0.00502323      -0.42457050
33
Properties=species:S:1:pos:R:3:forces:R:3 source=etkdg-seed3 energy=-154.67639226202382 pbc="F F F"
C       -4.65026534       0.15988146       0.63806534      -0.08386462       0.05677804       0.14584370
C       -3.18374120      -0.27271283       0.56630702      -0.44629701      -0.09569819      -0.37846538
C       -3.09292885      -1.69607632       0.01014372       0.12175733      -0.11151171       0.05757691
C       -2.38427938       0.73261073      -0.28560065       0.44098208       0.12259845       0.08724214
C       -0.89044871       0.51563090      -0.24333076       0.23374559      -0.06931331      -0.03746492
C       -0.21436735      -0.00852820      -1.35079378       0.39061857      -0.02753573       0.19251560
C        1.16728318      -0.21312189      -1.30889749      -0.35448785       0.12056357       0.18516217
C        1.90308953       0.10184039      -0.15811721      -0.37603969       0.09693929      -0.10777977
C        3.40298721      -0.12769556      -0.12981457       0.07357401      -0.15045874       0.89298668
C        3.80340839      -1.15811120       0.92840633       0.04554792      -0.10339375       0.05033401
C        4.16703411       1.16644099       0.07969399       0.18506059       0.33119698      -0.07553957
O        4.52983077       1.64372778       1.14351165      -0.53031505      -0.72351101      -0.21803272
O        4.42647276       1.81375718      -1.07625950       0.00909002       0.21558122       0.03807285
C        1.22303920       0.63060819       0.94867757      -0.24846265      -0.03343061      -0.20654194
C       -0.15822586       0.83479516       0.90600890       0.34230812      -0.14009584      -0.16708503
H       -4.73980869       1.16003184       1.07513474      -0.04329897      -0.11503345      -0.08925682
H       -5.10779140       0.18178325      -0.35694745       0.08260641      -0.00596508       0.15386533
H       -5.22932881      -0.52886792       1.26237979       0.02031832       0.10141478      -0.11260909
H       -2.78833968      -0.28173088       1.58996466       0.20788770       0.09028701       0.13386927
H       -3.70412102      -2.38383673       0.60455778       0.07232556       0.05839225      -0.12539475
H       -3.44563467      -1.74117092      -1.02585878       0.05730692       0.01850451       0.16498608
H       -2.06433987      -2.06905938       0.03655583      -0.10144998       0.05871971      -0.06676429
H       -2.73630722       0.70409506      -1.32525514       0.02562332      -0.02685724       0.12715393
H       -2.58182556       1.75505586       0.06368452      -0.05283349      -0.09776727      -0.03934140
H       -0.75960541      -0.26478548      -2.25641702       0.12012190       0.12898025       0.38848292
H        1.66352463      -0.62073148      -2.18715583      -0.08337192       0.16971634       0.40281555
H        3.73050865      -0.53522290      -1.09609990      -0.14932990       0.14625253      -0.17413150
H        4.88347772      -1.34068745       0.89868804      -0.15904358       0.01905295       0.04231848
H        3.29302074      -2.11258848       0.75880000       0.06991738       0.12943775       0.05697745
H        3.55943621      -0.82404058       1.94308429       0.00968896       0.03708059      -0.22775361
H        4.87450179       2.63695859      -0.79018556       0.09935932       0.09116186      -0.24945173
H        1.76347539       0.89374683       1.85654541      -0.08108301      -0.13038483      -0.45821186
H       -0.65973127       1.24800395       1.77843276       0.10203768      -0.16170133      -0.38637872
33
Properties=species:S:1:pos:R:3:forces:R:3 source=etkdg-seed4 energy=-154.6764482056402 pbc="F F F"
C       -3.04484496      -1.63116410      -0.43378873       0.11197094      -0.06270971      -0.11882788
C       -3.24981222      -0.12380228      -0.26237646      -0.37441622      -0.29427306       0.35363164
C       -4.71359090       0.16121797       0.08272633      -0.10811793       0.10797876      -0.09029335
C       -2.33269386       0.46373080       0.82814947       0.41767719       0.18912028      -0.08572526
C       -0.86457377       0.42411731       0.47680808       0.23772392      -0.05721105      -0.03237315
C       -0.34200611       1.28738358      -0.49326072       0.36789283      -0.17162955       0.04109784
C        1.01520155       1.24915485      -0.82280228      -0.32154802      -0.14513001       0.21956534
C        1.87987314       0.34576130      -0.18964370      -0.37452026       0.11273788       0.09443381
C        3.35122395       0.31656034      -0.56039070       0.14445446      -0.87807398       0.18294315
C        3.76151349      -1.02821667      -1.16467692       0.04128578      -0.08301384      -0.08189566
C        4.23744842       0.65391250       0.62419817       0.20422566       0.20514240       0.25662041
O        4.73773864      -0.12911074       1.41648249      -0.60728562      -0.10120643      -0.68784978
O        4.44003449       1.98122949       0.76470875       0.03065044       0.04662737       0.21187591
C        1.35378236      -0.51537761       0.78450829      -0.27126489       0.16407287      -0.07901317
C       -0.00340532      -0.47623796       1.11376018       0.35451011       0.08908908      -0.23579533
H       -3.73760847      -2.03371927      -1.18073280       0.09165519       0.00249268       0.12643287
H       -3.21616280      -2.16504207       0.50714557       0.02838753       0.09521152      -0.14491779
H       -2.03016938      -1.85882018      -0.77498261      -0.08944643       0.01319183       0.10029142
H       -3.03345049       0.36024034      -1.22320399       0.18073394       0.15872874      -0.10661073
H       -4.99620087      -0.30417117       1.03320115       0.05547152       0.07068535      -0.14983961
H       -4.89082255       1.23869927       0.16620693      -0.02591039      -0.14608196       0.03255088
H       -5.37970027      -0.22598953      -0.69562157       0.03750509       0.04179478       0.14218073
H       -2.50296531      -0.05695912       1.77973387       0.00437435       0.03499866      -0.12773054
H       -2.60185499       1.51217590       1.01451992      -0.04409147      -0.10952277      -0.00197338
H       -0.99061399       1.99918071      -0.99914325       0.16974063      -0.30564192       0.24821894
H        1.39053146       1.93523506      -1.57917541      -0.03064713      -0.31280362       0.31386362
H        3.55107718       1.07420974      -1.33051054      -0.15231635       0.20776363       0.08731086
H        3.64291952      -1.85365489      -0.45384447      -0.00864074       0.22504898      -0.05112172
H        4.81486049      -1.00949502      -1.46613177      -0.15217914      -0.04076593       0.05120108
H        3.15917246      -1.26010708      -2.04994507       0.08556583       0.00013071       0.13249560
H        4.98049898       2.05243533       1.57899117       0.08267043       0.27055454      -0.01933962
H        1.99751112      -1.22540340       1.30129895      -0.13463204       0.37089361      -0.28049888
H       -0.38291100      -1.15797340       1.87166993       0.04852078       0.30180017      -0.30090824
33
Properties=species:S:1:pos:R:3:forces:R:3 source=etkdg-seed5 energy=-154.6839244240164 pbc="F F F"
C        2.95413358       1.61185324      -0.58440825      -0.11322101       0.03488417      -0.13066810
C        3.22511214       0.17510508      -0.13069690       0.35208488       0.37317165       0.29745748
C        4.69215338       0.03325533       0.28241647       0.11506830      -0.11729088      -0.06699360
C        2.31125160      -0.24416575       1.03748294      -0.40741914      -0.22341376      -0.05354825
C        0.85143988      -0.34456599       0.66433452      -0.23858473       0.03953626      -0.04746695
C       -0.06467736       0.61660785       1.10574238      -0.34511055      -0.15351355      -0.21342151
C       -1.41402771       0.52597780       0.75513731       0.28264243      -0.15498816      -0.05356649
C       -1.87745068      -0.52979093      -0.04354297       0.40223601       0.00369930       0.00151159
C       -3.33929871      -0.64340107      -0.43503805      -0.34528076       0.41125178       0.73192490
C       -4.24479422      -0.83097467       0.78430904      -0.08096645      -0.05169219       0.07815531
C       -3.79748706       0.54991555      -1.25269128      -0.07513902       0.22635045      -0.30300307
O       -4.30830794       1.57712540      -0.83432557       0.38173916      -0.72662636       0.41683749
O       -3.57183534       0.39584165      -2.57477689       0.04050234       0.19397380      -0.09298926
C       -0.95689435      -1.49030750      -0.48474162       0.30811280       0.19638298       0.19746139
C        0.39237453      -1.39890219      -0.13376474      -0.37652528       0.15691233       0.00381341
H        3.07806368       2.31969191       0.24223489      -0.02107081      -0.12187832      -0.12568518
H        3.64481092       1.90242646      -1.38342760      -0.09554357       0.01628057       0.12336027
H        1.93829962       1.72062420      -0.97690687       0.08699692       0.00952219       0.10215615
H        3.05403631      -0.48982244      -0.98679624      -0.17136210      -0.18393540      -0.07792443
H        5.35744184       0.30149028      -0.54517031      -0.03904693      -0.01634122       0.14683761
H        4.93050282       0.68128198       1.13277591      -0.04854569      -0.09982832      -0.13483598
H        4.91746897      -0.99949242       0.56879681       0.01837836       0.15060669       0.00476386
H        2.62468759      -1.22465795       1.42064797       0.04039811       0.10905836      -0.02221337
H        2.43476825       0.45254188       1.87710616       0.00117596      -0.05719632      -0.11958164
H        0.26586776       1.44886498       1.72324404      -0.02728245      -0.35403285      -0.24055521
H       -2.09965166       1.29402734       1.10954854       0.16786036      -0.38049907      -0.24769651
H       -3.48287537      -1.53204347      -1.06492666       0.22138965       0.00888777      -0.15767313
H       -5.28803740      -0.95652789       0.47342116       0.14157125       0.03458327       0.07898976
H       -3.95217560      -1.71795898       1.35694686      -0.04926888       0.14056520      -0.05210311
H       -4.21012906       0.03034780       1.46077639       0.06147704      -0.10486652      -0.19633906
H       -3.86903927       1.24405796      -2.96519229      -0.00787834      -0.06867599      -0.27449771
H       -1.28104679      -2.32007691      -1.10931261       0.00982976       0.37067928       0.24468454
H        1.08531565      -2.15834851      -0.48920253      -0.18921763       0.33843283       0.18280878
33
Properties=species:S:1:pos:R:3:forces:R:3 source=etkdg-seed6 energy=-154.6693682098069 pbc="F F F"
C       -4.62040063       0.93805652       0.14718997      -0.08192360       0.15726029       0.00831058
C       -3.15330402       0.67950028       0.49901551      -0.45159432      -0.37907969      -0.06205383
C       -3.06484447      -0.40809673       1.57271403       0.12444405       0.00449520       0.12531909
C       -2.37060508       0.30050283      -0.77351449       0.44214555       0.12474579      -0.08368414
C       -0.87541957       0.23363402      -0.57299894       0.23151312      -0.06421371       0.04957017
C       -0.12738380       1.40478422      -0.40670675       0.34421885      -0.21762139       0.05622752
C        1.25524612       1.34460906      -0.21470984      -0.35841499      -0.18692896      -0.06076328
C        1.92189894       0.11156898      -0.18905966      -0.38638772       0.06344293      -0.01253174
C        3.42346422       0.06590907       0.02943902       0.10890619       0.19024401       0.08561925
C        4.16165023      -0.65317465      -1.10297605       0.06868517      -0.05331897      -0.05731056
C        3.77329673      -0.49356657       1.39665172      -0.07065887      -0.23309622       0.32095549
O        3.85183881       0.14986567       2.43281371      -0.16892399       0.20802260      -0.86138992
O        3.96177967      -1.82838014       1.42409903      -0.03053913      -0.08455254       0.12235758
C        1.16813428      -1.05996836      -0.35024703      -0.25272655       0.22505562      -0.01292606
C       -0.21449742      -0.99922159      -0.54277289       0.39686274       0.15552472       0.09773073
H       -4.70766472       1.74488451      -0.58817566      -0.04421352      -0.12760825       0.06937670
H       -5.09254937       0.04325237      -0.27264503       0.08480091       0.13701478       0.06742221
H       -5.18739980       1.23532563       1.03578527       0.01852262      -0.06198698      -0.13846429
H       -2.74289626       1.60643541       0.91932383       0.21019529       0.15574402      -0.02912164
H       -2.03455919      -0.54719661       1.91471382      -0.10164325      -0.03501619      -0.07991905
H       -3.66487211      -0.13758194       2.44832207       0.07178546      -0.09165538      -0.10522711
H       -3.43200520      -1.36893972       1.19627475       0.06025769       0.15786888       0.05027419
H       -2.73751363      -0.65679670      -1.16668532       0.02650087       0.10438310       0.07738348
H       -2.56745809       1.03753527      -1.56374299      -0.05437575      -0.07450839       0.07412465
H       -0.61841874       2.37531413      -0.42311039       0.09794438      -0.41821103      -0.00855845
H        1.80606884       2.27351765      -0.08146595      -0.10875515      -0.43470816      -0.03571001
H        3.81404825       1.09334215       0.03050717      -0.19696415       0.15585663       0.09170365
H        3.96455899      -0.16785566      -2.06534368       0.03252969      -0.10393902       0.11670519
H        3.86571483      -1.70370053      -1.19565130      -0.01344085       0.19606793       0.13239275
H        5.24339446      -0.63476547      -0.92931379      -0.15586085      -0.03489598      -0.04590043
H        4.12439205      -2.01799249       2.37214924       0.09053395      -0.30542538      -0.02533673
H        1.64905194      -2.03576663      -0.32160234      -0.05804989       0.46496133       0.03623861
H       -0.77274627      -1.92503398      -0.66245968       0.12462606       0.40607839       0.03718539
33
Properties=species:S:1:pos:R:3:forces:R:3 source=etkdg-seed7 energy=-154.6693705230468 pbc="F F F"
C       -4.69381260      -0.31290532      -0.06421097      -0.09939764      -0.14178046       0.03912795
C       -3.22263051      -0.12579107       0.31475875      -0.40308298       0.39654411      -0.17825490
C       -3.05639876       1.17163016       1.11011134       0.11788961       0.01305959       0.13093509
C       -2.35059178      -0.14052049      -0.95603711       0.42832729      -0.18456194      -0.02285417
C       -0.86690238      -0.17740679      -0.67753705       0.23504063       0.05073200       0.04859272
C       -0.07310052       0.95494695      -0.89041645       0.37246187      -0.16660713       0.15733498
C        1.29848569       0.92147751      -0.62573249      -0.27572573      -0.19528963       0.02289131
C        1.90820425      -0.24725633      -0.14724878      -0.39023152      -0.02571252      -0.02313413
C        3.39509841      -0.30098757       0.15405444       0.08316184      -0.17428306       0.13449126
C        4.25550458       0.05062726      -1.06267520       0.07655364       0.03100730      -0.06340769
C        3.74925366       0.52996219       1.37420291      -0.05709756       0.30864181       0.25261469
O        3.71215562       0.14703689       2.53428724      -0.15573734      -0.38911211      -0.79879811
O        4.08563363       1.80729726       1.10352051      -0.02580150       0.11386422       0.09707404
C        1.10850468      -1.37812843       0.06973044      -0.33228247       0.20190328      -0.12618784
C       -0.26303747      -1.34398116      -0.19457253       0.36394853       0.18928442       0.02694339
H       -5.32672778      -0.33207723       0.82938338       0.03108167       0.02508512      -0.14753716
H       -4.84113115      -1.25868753      -0.59632272      -0.03236754       0.14421751       0.03476194
H       -5.04448708       0.49881197      -0.71074263       0.06598138      -0.12479954       0.10287670
H       -2.93688493      -0.96228526       0.96508881       0.19232573      -0.17837249       0.02187595
H       -2.03192919       1.28458745       1.47821909      -0.09368399       0.02495579      -0.09244225
H       -3.71854873       1.17849366       1.98270046       0.08592069       0.05635018      -0.11862283
H       -3.29719684       2.04700594       0.49735826       0.03997328      -0.14657351       0.08944018
H       -2.59084662       0.72742486      -1.58419107       0.01137083      -0.08509408       0.10110001
H       -2.59658699      -1.02098362      -1.56488915      -0.04863352       0.09506025       0.05102195
H       -0.51810269       1.87664093      -1.25858546       0.07645221      -0.39591481       0.13862970
H        1.88468684       1.82306378      -0.79244935      -0.11149447      -0.43479827       0.13922990
H        3.66706870      -1.33234978       0.41956980      -0.21686167      -0.10912388       0.11207038
H        4.08385262       1.07305108      -1.41616253      -0.04087969      -0.15654272       0.17308706
H        5.32023199      -0.03376143      -0.81792841      -0.14890472       0.03833422      -0.06299903
H        4.04471979      -0.62759651      -1.89700772       0.03919952       0.12492440       0.09125708
H        4.22948030       2.19984956       1.99031573       0.12532280       0.28002265      -0.08946606
H        1.54522812      -2.29884701       0.45128065      -0.05753000       0.42234306      -0.14278896
H       -0.85919284      -2.23655499      -0.01787217       0.14470080       0.39223623      -0.09886313
33
Properties=species:S:1:pos:R:3:forces:R:3 source=etkdg-seed8 energy=-154.6224656632042 pbc="F F F"
C       -3.59511078      -0.60769201      -0.99327731      -0.07676923      -0.10579566      -0.05183617
C       -3.47722614       0.06107027       0.37685297       0.14226922       0.11741834      -0.24481806
C       -3.30442865       1.57243429       0.22088085      -0.04760993       0.11261418       0.06975742
C       -2.39043989      -0.57896666       1.26582304       0.22420600      -0.11105891       0.14111034
C       -0.97112174      -0.48628644       0.75901941       0.21827956       0.05126530      -0.13494592
C       -0.15983873       0.60018609       1.10463913       0.32658915      -0.10578473      -0.24440348
C        1.15373825       0.68740558       0.63576143      -0.25611112      -0.20791894       0.00657252
C        1.69062660      -0.31286951      -0.18695060      -0.35796118      -0.10781421       0.19641931
C        3.11297439      -0.23543040      -0.71983618      -0.35056340       0.55165517       0.38149975
C        3.32952070       1.00577011      -1.58592158       0.03775145       0.04023797      -0.12109088
C        4.16983356      -0.27719693       0.37086622       0.33333817      -0.11587022       0.14721145
O        4.09705399       0.15089440       1.51083041      -0.67824763       0.02963997      -0.61900795