12
Properties=species:S:1:pos:R:3:forces:R:3 source=etkdg-seed0 energy=-51.82199614395061 pbc="F F F"
C        1.88627141      -0.02823739       0.03190041      -0.26689529      -0.12032013      -0.49025745
C        0.48893670      -0.12269827      -0.51963606       0.23143235      -0.04150559      -0.19424302
O        0.26705476      -0.47263101      -1.67390294       0.14338089       0.28915700       0.82465518
N       -0.49584046       0.20083920       0.38608023      -0.03181437      -0.11855959      -0.83259049
C       -1.88883961       0.06838749       0.04149826       0.12996764      -0.06776745       0.26879887
H        2.52391100       0.48261515      -0.69495580      -0.00255768      -0.14091791       0.12010038
H        1.91297610       0.53861896       0.96672720       0.00409380      -0.09414509      -0.11972334
H        2.26801422      -1.03610683       0.21422388       0.07415491       0.16739424      -0.02456001
H       -0.25093568       0.27610596       1.36445016      -0.11292440       0.10756939       0.57441782
H       -2.16670502      -0.98677724       0.10864047      -0.07634751       0.13301662      -0.06827809
H       -2.06534603       0.42747505      -0.97599047       0.05538284      -0.04478283       0.11124527
H       -2.47949738       0.65240892       0.75096466      -0.14787317      -0.06913866      -0.16956511
12
Properties=species:S:1:pos:R:3:forces:R:3 source=etkdg-seed1 energy=-51.82199614395061 pbc="F F F"
C        1.88627141      -0.02823739       0.03190041      -0.26689529      -0.12032013      -0.49025745
C        0.48893670      -0.12269827      -0.51963606       0.23143235      -0.04150559      -0.19424302
O        0.26705476      -0.47263101      -1.67390294       0.14338089       0.28915700       0.82465518
N       -0.49584046       0.20083920       0.38608023      -0.03181437      -0.11855959      -0.83259049
C       -1.88883961       0.06838749       0.04149826       0.12996764      -0.06776745       0.26879887
H        2.52391100       0.48261515      -0.69495580      -0.00255768      -0.14091791       0.12010038
H        1.91297610       0.53861896       0.96672720       0.00409380      -0.09414509      -0.11972334
H        2.26801422      -1.03610683       0.21422388       0.07415491       0.16739424      -0.02456001
H       -0.25093568       0.27610596       1.36445016      -0.11292440       0.10756939       0.57441782
H       -2.16670502      -0.98677724       0.10864047      -0.07634751       0.13301662      -0.06827809
H       -2.06534603       0.42747505      -0.97599047       0.05538284      -0.04478283       0.11124527
H       -2.47949738       0.65240892       0.75096466      -0.14787317      -0.06913866      -0.16956511
12
Properties=species:S:1:pos:R:3:forces:R:3 source=etkdg-seed2 energy=-51.821995559994264 pbc="F F F"
C       -1.88327857      -0.00484395      -0.11434035       0.26203649       0.47655416       0.17397433
C       -0.49150318       0.51731920       0.12223189      -0.23191578       0.19442298       0.03773442
O       -0.28491350       1.64101487       0.56792847      -0.12955624      -0.80033624      -0.35624529
N        0.50561409      -0.37879098      -0.19006416       0.03121091       0.82178714       0.17880915
C        1.88811711      -0.06562550       0.06943342      -0.13740456      -0.27080502       0.03886474
H       -1.87672027      -0.89762608      -0.74587760      -0.00994984       0.11298350       0.10177011
H       -2.34157511      -0.25068917       0.84706236      -0.06109966       0.03724098      -0.17030972
H       -2.47330287       0.76536017      -0.61885058      -0.00927541      -0.12959510       0.13192873
H        0.25718839      -1.34571917      -0.35188437       0.11488505      -0.56724393      -0.13897651
H        2.10140558       0.97147857      -0.20315800      -0.05971965      -0.11323544       0.03261786
H        2.08514297      -0.20999598       1.13499799       0.08682282       0.07615233      -0.12184781
H        2.51382536      -0.74188198      -0.51747906       0.14396587       0.16207465       0.09167999
12
Properties=species:S:1:pos:R:3:forces:R:3 source=etkdg-seed3 energy=-51.82199567945224 pbc="F F F"
C        1.88485125      -0.08412271       0.00972633      -0.28134726      -0.11841334       0.48258880
C        0.47161361      -0.18054307       0.51876665       0.22461850      -0.07448660       0.19237194
O        0.21816105      -0.42815659       1.69284758       0.16396692       0.14388572      -0.85828045
N       -0.48828900       0.04758560      -0.44109255      -0.06172904      -0.30336392       0.78260196
C       -1.88629116       0.08541417      -0.09340636       0.14479306       0.18218199      -0.19894026
H        1.92294932      -0.11975695      -1.08261948       0.00371988       0.02279505       0.15060433
H        2.32526713       0.85587718       0.35207756       0.06434456      -0.16238186      -0.06012284
H        2.46339723      -0.92663543       0.39874228       0.00985690       0.18155543      -0.03517981
H       -0.20541675       0.44604400      -1.32656697      -0.09329894       0.19579113      -0.55430199
H       -2.47480356      -0.03503279      -1.00579081      -0.15134787      -0.01337121       0.17975898
H       -2.12486075      -0.71415270       0.61310567       0.06236872       0.08984211      -0.07407643
H       -2.10657836       1.05347929       0.36421010      -0.08594543      -0.14403451      -0.00702422
12
Properties=species:S:1:pos:R:3:forces:R:3 source=etkdg-seed4 energy=-51.82199498039174 pbc="F F F"
C        1.88488161      -0.01731725       0.08219596      -0.28412041       0.37704648       0.32122256
C        0.47018257       0.41164493       0.36552953       0.22449875       0.15649895       0.13461472
O        0.20552989       1.27391479       1.19647276       0.17504905      -0.59828372      -0.62901721
N       -0.47873314      -0.25722824      -0.37403329      -0.05901571       0.68500325       0.48537549
C       -1.88421585      -0.02951549      -0.15156709       0.13568941      -0.26825539      -0.05796058
H        2.24337709      -0.63672190       0.90838565       0.07806826       0.09954394      -0.13461325
H        2.51540775       0.87092478      -0.01444302      -0.00305657      -0.17139655       0.07007214
H        1.95427258      -0.58760602      -0.84833926      -0.00198052       0.06324477       0.13859757
H       -0.20381186      -1.08889962      -0.87959413      -0.09332265      -0.46248911      -0.36288664
H       -2.07977098       1.03700144      -0.01127569       0.05728118      -0.11868255      -0.00906083
H       -2.43768369      -0.39953961      -1.01762455      -0.15456148       0.11706950       0.13343193
H       -2.18943597      -0.57665781       0.74429311      -0.07452931       0.12070043      -0.08977591
12
Properties=species:S:1:pos:R:3:forces:R:3 source=etkdg-seed5 energy=-51.82199539645383 pbc="F F F"
C        1.88441139       0.08942711      -0.02883615      -0.26851719      -0.24957150      -0.43779291
C        0.48513848      -0.21519910      -0.49240714       0.22961233      -0.07340010      -0.18681876
O        0.26282602      -0.84389384      -1.52164816       0.14119701       0.48623710       0.72655609
N       -0.49980098       0.25850684       0.34442167      -0.04106364      -0.31636099      -0.77880761
C       -1.88807032      -0.03306772       0.09061215       0.13953946       0.00629390       0.27244423
H        1.89349967       0.86443242       0.74267272       0.00772491      -0.11971676      -0.09395625
H        2.33412836      -0.82151100       0.37454494       0.06266553       0.16062322      -0.06629179
H        2.47273968       0.44714465      -0.87841369       0.00901141      -0.10791792       0.15019775
H       -0.24036006       0.58017541       1.26749828      -0.10789514       0.23543156       0.53593201
H       -2.50063262       0.66882154       0.66106684      -0.14653118      -0.11620711      -0.14290806
H       -2.10813612       0.06078623      -0.97622614       0.06041717      -0.01352647       0.11667968
H       -2.09574348      -1.05562253       0.41671469      -0.08616065       0.10811508      -0.09523437
12
Properties=species:S:1:pos:R:3:forces:R:3 source=etkdg-seed6 energy=-51.82199504134525 pbc="F F F"
C        1.88471038       0.03834850       0.18923299      -0.25181212      -0.01693223      -0.51219450
C        0.50381038       0.01664262      -0.40935177       0.23673540       0.01235252      -0.19186600
O        0.31990817      -0.07235663      -1.61859784       0.11453617       0.10111264       0.87229747
N       -0.51158422       0.08926841       0.51719290      -0.01047826       0.07107260      -0.83856144
C       -1.89046504      -0.01590982       0.11178972       0.12763043      -0.12154214       0.25034703
H        2.51304459       0.72423057      -0.38577686       0.00136191      -0.16436006       0.08528105
H        2.30703807      -0.96911946       0.15156500       0.06713775       0.17137775       0.01578246
H        1.86830667       0.38042758       1.22781625       0.01055775      -0.06450529      -0.13765805
H       -0.28915728      -0.04857034       1.49411490      -0.12861887      -0.02916907       0.58044485
H       -2.06301450       0.55624018      -0.80377176       0.05515056      -0.06653504       0.09989923
H       -2.12267130      -1.06898772      -0.06764531      -0.08081976       0.14192560      -0.03884091
H       -2.51992593       0.36978610       0.91697136      -0.14138096      -0.03479727      -0.18493119
12
Properties=species:S:1:pos:R:3:forces:R:3 source=etkdg-seed7 energy=-51.821995495231164 pbc="F F F"
C        1.86349217       0.23233324       0.22769962      -0.34429715       0.23621547       0.38950519
C        0.39680263       0.33408548       0.55038781       0.19663585       0.12631539       0.19590941
O       -0.01751212       0.99959791       1.49349591       0.28382906      -0.51411630      -0.66283232
N       -0.41785400      -0.36679470      -0.30977952      -0.16290498       0.36851359       0.73891922
C       -1.85233477      -0.29343829      -0.19311600       0.16319212      -0.00529275      -0.25899467
H        2.19592071       1.16935119      -0.22645722       0.08133380      -0.14168338       0.08621125
H        2.42104236       0.05078882       1.15076723       0.00530180       0.09504069      -0.15883384
H        2.06811629      -0.59142344      -0.46186185      -0.02031753       0.12668667       0.08218631
H       -0.02623155      -0.71567194      -1.17451464      -0.01883423      -0.29396016      -0.51723696
H       -2.15161510      -0.33409068       0.85767421       0.06792555       0.01378031      -0.11244264
H       -2.28884790      -1.13350819      -0.73812874      -0.17583536       0.10130377       0.11923786
H       -2.19097873       0.64877060      -0.63203731      -0.07602893      -0.11280331       0.09837118
12
Properties=species:S:1:pos:R:3:forces:R:3 source=etkdg-seed8 energy=-51.82199489059416 pbc="F F F"
C        1.88130681      -0.11659041       0.08323838      -0.26506464       0.38229198       0.33110756
C        0.48708976       0.35079602       0.40474874       0.23013245       0.12428793       0.15685195
O        0.27380649       1.28043768       1.17565299       0.13375318      -0.69609388      -0.53085123
N       -0.50384253      -0.34414052      -0.25092020      -0.03831704       0.54972590       0.63612199
C       -1.88597307       0.04352241      -0.12380068       0.14116744      -0.09618410      -0.25406778
H        1.87598988      -1.09769180      -0.39982879       0.01011846       0.14329140       0.05085732
H        2.45462350      -0.19646165       1.01103403       0.01274823       0.05398683      -0.17669592
H        2.35666572       0.60737503      -0.58360356       0.05812920      -0.13229812       0.11507376
H       -0.24639113      -0.94981765      -1.01885508      -0.11018626      -0.39212085      -0.43405614
H       -2.06549663       0.91226161      -0.76266910      -0.08951167      -0.07005753       0.12353856
H       -2.51223068      -0.79045256      -0.44874347      -0.14449662       0.15900297       0.09611308
H       -2.11554812       0.30076185       0.91374674       0.06152727      -0.02583254      -0.11399316
12
Properties=species:S:1:pos:R:3:forces:R:3 source=etkdg-seed9 energy=-51.82199483535505 pbc="F F F"
C       -1.87671725       0.03547930      -0.19107293       0.25669333       0.43927272       0.25921305
C       -0.49376129       0.49655273       0.18376517      -0.23237515       0.18849730       0.05902991
O       -0.30090273       1.53134574       0.81307113      -0.11814345      -0.73097806      -0.48575624
N        0.51140879      -0.34908522      -0.22771374       0.02754045       0.78188134       0.31021888
C        1.88312129      -0.09784893       0.13562015      -0.14023517      -0.27193403      -0.01103921
H       -2.37664494      -0.35663155       0.69836013      -0.05363311       0.06488201      -0.16442724
H       -2.44105094       0.88366281      -0.58854906      -0.01548948      -0.14904301       0.10880706
H       -1.84761153      -0.74397543      -0.95758755      -0.01372409       0.09521752       0.11816785
H        0.26543919      -1.27439283      -0.55352770       0.11795567      -0.53878366      -0.22384820
H        2.11279011       0.96706805       0.04296039      -0.06159048      -0.11629431       0.01143292
H        2.52995376      -0.67799629      -0.52645007       0.14071300       0.14351822       0.12248248
H        2.03397555      -0.41417839       1.17112408       0.09228847       0.09376396      -0.10428128
12
Properties=species:S:1:pos:R:3:momenta:R:3:forces:R:3 source=md-300K-step50 energy=-51.7571735382652 pbc="F F F"
C        1.90037509       0.01312195       0.03413047       0.35418812       0.25020955      -0.02786788      -0.11720412       0.79014799       0.09586132
C        0.48908396      -0.03777248      -0.42618946      -0.37483998       0.27969058       0.56335019      -0.71251088       0.36671135       1.72664166
O        0.22257785      -0.44389938      -1.51624846      -0.37935538       0.28341001       0.91653541      -0.28316910      -0.51253494      -1.42508781
N       -0.53750133       0.36979024       0.44518910      -0.19862137       1.02476642       0.79298198       1.75616130       0.06219366       1.15558131
C       -1.90360791       0.15225156       0.16754811      -0.03205242       0.29610729       0.16143160      -0.17252703       0.85857920      -1.09888252
H        2.45145700       0.58339582      -0.72357051      -0.06122924       0.16867677       0.01707892       0.15748917      -0.30191485       0.18348113
H        1.96508780       0.59757040       0.96930134       0.25406916      -0.09365761      -0.00364518       0.08438696      -0.41967982      -0.28632883
H        2.32706385      -0.98844180       0.15697892       0.08091857       0.02403608       0.15761621      -0.05391983       0.21475593      -0.01923522
H       -0.30329474       0.57887537       1.44149985      -0.05064025       0.10923440      -0.23237775      -0.27613410      -0.12272813      -0.70787122
H       -2.31287350      -0.70558455       0.66481982      -0.06675750       0.17432895       0.26494019      -0.11962146      -0.45340958       0.30940522
H       -1.91198337      -0.01217904      -0.91604921      -0.07617959      -0.11791348       0.08703267      -0.42471509      -0.08958978       0.10203339
H       -2.49557255       1.05816287       0.38680547       0.01489909       0.05812191      -0.18072815       0.16176417      -0.39253101      -0.03559844
12
Properties=species:S:1:pos:R:3:momenta:R:3:forces:R:3 source=md-300K-step100 energy=-51.79340965584009 pbc="F F F"
C        1.90191076       0.10874852       0.04478173      -0.47546076       0.38930655      -0.10423129       0.33610908       0.15645660      -0.13106985
C        0.48772591       0.05515560      -0.30962868       0.17418184       0.84420072       0.70556281      -1.55328107      -0.24632550      -0.07173466
O        0.14772675      -0.44121289      -1.36667691      -0.61084409      -0.31378349       0.88020744       0.19707145      -0.01599557      -0.22257970
N       -0.52321310       0.48911571       0.54969564       0.03509499       0.06445317      -0.25385834       0.48463586      -0.27142388      -0.65113368
C       -1.92365965       0.25385420       0.21912351       0.26820493       0.87363438       0.76769326       0.27022641       0.00908787       0.13391936
H        2.45218436       0.69267686      -0.69356973      -0.11805905       0.18091162       0.09742160       0.00365751      -0.07852459      -0.03147555
H        2.04811672       0.58920200       1.00462893       0.08601642      -0.10336160      -0.02547977       0.08025952      -0.09241702       0.27239102
H        2.27974042      -0.91730741       0.03110416       0.05320177       0.06223803       0.21903401       0.21255992       0.17640539       0.19447708
H       -0.28137344       0.98057353       1.39532375      -0.03967022       0.28990116       0.20146975      -0.09996642       0.29605673       0.64824254
H       -2.45121485      -0.30853312       0.99172366      -0.18753132       0.14169960       0.10967627       0.15763247       0.01614973       0.02816158
H       -1.92346074      -0.33847285      -0.69096550       0.24485891       0.03631904       0.10093767      -0.17690757      -0.05718026      -0.14116901
H       -2.46687790       1.17806677       0.03599148       0.04739825      -0.06810972      -0.24312596       0.08800284       0.10771051      -0.02802912
12
Properties=species:S:1:pos:R:3:momenta:R:3:forces:R:3 source=md-300K-step150 energy=-51.74693695661784 pbc="F F F"
C        1.87478860       0.25656044       0.12932607      -0.66916012       0.56805206       0.07817588      -0.10426647      -0.54947415      -0.35817803
C        0.43494156       0.07419446      -0.21109132       0.13166758      -0.17986722       0.34091720      -0.33525157      -0.31551949      -1.75991308
O        0.09464492      -0.49797132      -1.26914370       0.03158053      -0.11980528       1.03864671       0.70625416       0.74620410       1.80929851
N       -0.51423701       0.60334866       0.62907102       0.50339667       0.60423684       0.06270837       0.22570309      -0.18953259      -0.18580349
C       -1.89894033       0.39925913       0.25925147      -0.37162227       0.98082095       0.80107108      -0.12578145       0.70950605       1.70924089
H        2.39632640       0.89460500      -0.57205172      -0.11816883       0.17611270       0.07529681      -0.07754582       0.12749740      -0.29751718
H        2.02001305       0.69081196       1.10072655       0.14607326      -0.02706971       0.03816015      -0.05269607       0.09506558       0.51765600
H        2.35695309      -0.72013877       0.09586321       0.01997307       0.09692037       0.27121620       0.09252438       0.04119281       0.09131526
H       -0.24153570       1.25261620       1.39820981      -0.13881065      -0.12673139      -0.19713139      -0.36017159      -0.37894954      -0.38831246
H       -2.45865000       0.26932520       1.20895930      -0.06311243       0.25546789       0.04817550       0.09939075      -0.21039907      -0.62011188
H       -2.01581683      -0.46632769      -0.38608587       0.03845125       0.05001751       0.05210761      -0.01299606      -0.03790378      -0.13852633
H       -2.28769440       1.31257261      -0.18026116      -0.02019914       0.06109918      -0.21359671      -0.05516336      -0.03768732      -0.37914822
12
Properties=species:S:1:pos:R:3:momenta:R:3:forces:R:3 source=md-300K-step200 energy=-51.748711493278876 pbc="F F F"
C        1.84310452       0.37163491       0.18928050      -0.02846375       0.75093100      -0.16175007       0.21944541       0.68559412      -0.13313675
C        0.40735608       0.10988576      -0.18190337      -0.51212876      -0.03767970      -0.13018859       0.34038497       0.75767297       1.34232263
O        0.11981097      -0.58245944      -1.12912168       0.20596026      -0.63356657       0.94020800      -0.15924223      -0.04749232      -0.25895877
N       -0.53252590       0.70016620       0.66780302      -0.19272374       0.70934139       0.40672980      -0.06829743      -0.51926687      -0.80171156
C       -1.94018693       0.60977928       0.36933397      -0.11691565       0.81641005       0.54422987       0.11830228       0.95080108       0.59311330
H        2.37906103       0.98998877      -0.54304297       0.06473047       0.10640723       0.00873495      -0.39502336      -0.18782962      -0.07384295
H        1.96396043       0.92068339       1.13649246       0.26246860       0.02044546       0.11042684      -0.28056325      -0.31778050      -0.19379560
H        2.39615056      -0.54804967       0.25649286      -0.08508694       0.01764811       0.36840559       0.10629749      -0.44036288       0.08887361
H       -0.29167873       1.31112206       1.45725093      -0.05479416       0.20761619       0.28517968       0.31713944      -0.07070480      -0.15428144
H       -2.45611021       0.89838978       1.30102132       0.20849999       0.31287647      -0.09097059      -0.21665444      -0.36202730      -0.42212695
H       -2.21363142      -0.40469051       0.06427488      -0.23363693       0.02719877       0.07583559       0.00871708       0.18509153      -0.09290155
H       -2.18866246       1.39167100      -0.37472097      -0.01547073      -0.01511934      -0.01920891       0.00949403      -0.63369542       0.10644604
12
Properties=species:S:1:pos:R:3:momenta:R:3:forces:R:3 source=md-300K-step250 energy=-51.67372307160449 pbc="F F F"
C        1.80146295       0.44109083       0.20117690      -0.03473252       0.44115443      -0.34125923       1.64434064       0.64462800      -0.38173028
C        0.41468389       0.14318072      -0.07780759      -0.02004885       0.47891296       1.22979086      -0.92527887       1.10622338       1.57054737
O        0.10902967      -0.61333421      -0.94570317      -0.48814521      -0.50336845       0.64484978      -0.55784978      -1.08974752      -1.25497663
N       -0.52736606       0.80632993       0.70662893      -0.11429397       1.10506243       0.85374179      -0.77438066       0.54196129       0.14748885
C       -1.97968240       0.80609661       0.44477593       0.32563812       0.46753379      -0.03882252       1.23284856      -1.24918658      -0.40316818
H        2.21966067       0.90643792      -0.70051455      -0.14520168       0.04237489      -0.06040053       0.01952336      -0.17257684       0.10938916
H        1.92911548       1.21675189       0.96840433       0.17823546      -0.05252625      -0.12812263      -0.09032917      -0.39631675       0.09197529
H        2.42331806      -0.44771623       0.39442191       0.05671931       0.08926171       0.29473450      -0.37630458       0.20840693       0.13284588
H       -0.28054443       1.48248874       1.43817075      -0.08838087      -0.00489083      -0.18803251       0.40662957      -0.15327605      -0.17617834
H       -2.54318651       1.36880160       1.16957066       0.17580308       0.15588103      -0.10560377      -0.20898397       0.04729332       0.41885471
H       -2.22166302      -0.27833276       0.46716106      -0.18955344       0.11250505       0.11092007      -0.38479922       0.68065048      -0.12885110
H       -2.17936939       1.24284435      -0.53081299      -0.14153109      -0.10476007       0.00913083       0.01458413      -0.16805967      -0.12619673
12
Properties=species:S:1:pos:R:3:momenta:R:3:forces:R:3 source=md-300K-step300 energy=-51.68203531274059 pbc="F F F"
C        1.81433129       0.53109907       0.18302781      -0.28366300      -0.05896328      -0.15563486       1.16364770      -0.48774764      -0.50160634
C        0.39329956       0.26261009       0.02164532       0.94677250       1.02706928       0.23807719      -1.50946332      -1.89382741      -0.86357755
O        0.00539967      -0.62832816      -0.75954570      -0.98187312       0.02973671       1.32614982       0.62081654       1.40771137       0.85527445
N       -0.53488378       0.92016213       0.80893190      -0.04053050       0.26451195       0.36036355      -0.00228407       1.02137444       0.21722872
C       -1.94078977       0.88791099       0.48281768       0.29456688       0.33980042       0.37487808       0.80694150      -0.97039164      -0.87484552
H        2.31849368       0.75568998      -0.75850297      -0.22457273       0.04939909      -0.05210158      -0.32213445      -0.02351739      -0.18070444
H        2.00100664       1.38847072       0.79923817       0.05828491      -0.02353381      -0.04312643       0.05582101       0.29199060       0.60756285
H        2.33111432      -0.37616603       0.54144433      -0.08350523       0.16215534       0.24712338      -0.21560078       0.42483282       0.18816376
H       -0.27588308       1.77017254       1.31607388       0.04198296       0.31819204       0.11482570       0.21735865      -0.06066165       0.04775707
H       -2.56542040       1.69433417       0.83866358      -0.17696210       0.09214391      -0.14411880      -0.09586552       0.22335390       0.47711584
H       -2.26950920      -0.10781786       0.76652627       0.07009516       0.17083726       0.01778311      -0.49953248       0.03289239       0.19140801
H       -1.97564495       0.91230617      -0.60300160      -0.09431049      -0.19823348      -0.05862251      -0.21970479       0.03399020      -0.16377685
12
Properties=species:S:1:pos:R:3:momenta:R:3:forces:R:3 source=md-300K-step350 energy=-51.69642722568974 pbc="F F F"
C        1.82758237       0.59881971       0.17099043       0.14412231       0.15661438       0.09070721       0.12220296      -0.12077460      -0.35677094
C        0.35993527       0.29976955       0.14892504       0.23693861      -0.50234049      -0.22413507      -0.07864702       0.10037571      -1.23160318
O       -0.08781798      -0.57511823      -0.58901905      -0.10648240       0.52512010       1.34855816       0.57060694       0.22839777       0.58337950
N       -0.52139290       1.09257622       0.83953727      -0.47183579       1.02522760       0.11462093       0.07224652      -0.54258372       0.03842879
C       -1.91785881       0.90455905       0.54270114       0.40413810       0.66177484       0.83286673      -0.16550461       1.88023424      -0.78648921
H        2.27761095       0.61959969      -0.82330204      -0.29954404       0.03751964      -0.09678915      -0.40054378       0.00510679      -0.17113067
H        2.08977310       1.56072228       0.60376895       0.16064913       0.09342831       0.01329965      -0.18318004       0.01446002       0.33355707
H        2.35493558      -0.20665497       0.64753891      -0.08207873       0.21679479       0.15537012       0.19904370      -0.24480605       0.54322406
H       -0.20851723       1.92075436       1.36228110      -0.19961767      -0.12924240      -0.09819599      -0.07959411      -0.05931086      -0.03247521
H       -2.40307209       1.90642157       0.64044384      -0.23118368       0.14816122      -0.18075609      -0.05438727      -0.85689469       0.21275889
H       -2.36985750       0.12806247       1.12626080      -0.03297943       0.03915713       0.10595473      -0.22087725      -0.29763211       0.49927519
H       -2.05212217       0.65202496      -0.52233492       0.01565005      -0.15181440       0.11010763       0.21863395      -0.10657251       0.36784571
12
Properties=species:S:1:pos:R:3:momenta:R:3:forces:R:3 source=md-300K-step400 energy=-51.63828421036051 pbc="F F F"
C        1.79909672       0.63894773       0.18914357      -0.10380402       0.46480121      -0.04389492       0.08232615       0.99093777       0.30468727
C        0.31960387       0.36551306       0.15616398       0.00489434       0.29224317       0.08214170       1.43729157       2.44626745       1.34995816
O       -0.06152265      -0.58598694      -0.42811554       0.17895987      -0.62235830       0.61048623      -1.08654087      -1.95543400      -1.26641663
N       -0.51361229       1.24440481       0.83736574      -0.19395419       0.81075277      -0.40569890      -0.21542209      -1.06309059      -0.91295014
C       -1.96632030       1.01313797       0.67398526      -0.04332871       0.69115542       1.07188460      -0.18226629       1.30953511       0.51741076
H        2.33319815       0.59168661      -0.75414886      -0.11847865       0.06581025      -0.03761320      -0.41656490      -0.08747287      -0.43754125
H        2.02252246       1.64579850       0.59497750       0.13446082      -0.04906233       0.07328479      -0.20465555      -0.55121722      -0.05654030
H        2.27554525      -0.10234345       0.79488135      -0.14794106       0.01923663       0.31081086       0.25351925      -0.35706231       0.53700634
H       -0.12292962       2.06719065       1.33212595       0.04919411       0.31599193       0.12271295      -0.41037738      -0.26677769      -0.16156643
H       -2.40991069       2.02291446       0.49404752       0.16762800      -0.01647018      -0.06665623       0.05740339      -0.81796543       0.24727996
H       -2.36609808       0.57196177       1.60563075      -0.17934406       0.08745749       0.14067060       0.10285764       0.23236793      -0.46592896
H       -2.28095226       0.38791731      -0.18294719      -0.19929755       0.00940668       0.26080222       0.58242907       0.11991186       0.34460122
12
Properties=species:S:1:pos:R:3:momenta:R:3:forces:R:3 source=md-300K-step450 energy=-51.69505967802858 pbc="F F F"
C        1.77924311       0.69425026       0.27705359       0.08324588       0.06359476       0.03672240       0.55593782      -0.15603571       0.02478318
C        0.30198345       0.41925820       0.19769579      -0.25866203       0.80633818       1.02931331       0.25750026      -0.74321218      -0.14690824