15
Properties=species:S:1:pos:R:3:forces:R:3 source=etkdg-seed0 energy=-73.98947877945085 pbc="F F F"
C        1.63342061      -0.31925368       0.65178476       0.07947795       0.38261031      -0.54634383
C        1.57406854       0.72789105      -0.19364152      -0.22063243      -0.57389035       0.23618639
C        0.34109946       0.20363592      -0.91668694       0.36749620       0.25443365       0.00605744
C       -1.00930452       0.87212326      -0.61538907      -0.17227795      -0.21413223       0.22300371
C       -1.58171127       0.06741714       0.51688439      -0.18988414      -0.16768161       0.41790577
C       -0.80048535      -0.95263672       0.89333013      -0.89774588       0.27939511       0.18646201
C        0.41979078      -1.00511282       0.05895064       0.40373567       0.22480285       0.12240414
H        2.29951957      -0.58910786       1.46599948      -0.00591554       0.10533110      -0.06268132
H        2.17229131       1.62522813      -0.32084436       0.00450474      -0.08173227       0.09030475
H        0.48080740      -0.04436939      -1.97541343       0.25265190      -0.11787490      -0.27182602
H       -0.89325897       1.92414130      -0.33610793       0.05913657       0.04480779      -0.03109915
H       -1.67407705       0.80922243      -1.48329733      -0.05115596       0.12739402      -0.06762470
H       -2.52919685       0.30763490       0.98075601       0.13863755      -0.08289530      -0.01541041
H       -1.01918872      -1.64930976       1.68993359      -0.00360614       0.11773051      -0.08447533
H        0.58622503      -1.97750389      -0.41625842       0.23557746      -0.29829870      -0.20286344
15
Properties=species:S:1:pos:R:3:forces:R:3 source=etkdg-seed1 energy=-73.98947877945085 pbc="F F F"
C        1.63342061      -0.31925368       0.65178476       0.07947795       0.38261031      -0.54634383
C        1.57406854       0.72789105      -0.19364152      -0.22063243      -0.57389035       0.23618639
C        0.34109946       0.20363592      -0.91668694       0.36749620       0.25443365       0.00605744
C       -1.00930452       0.87212326      -0.61538907      -0.17227795      -0.21413223       0.22300371
C       -1.58171127       0.06741714       0.51688439      -0.18988414      -0.16768161       0.41790577
C       -0.80048535      -0.95263672       0.89333013      -0.89774588       0.27939511       0.18646201
C        0.41979078      -1.00511282       0.05895064       0.40373567       0.22480285       0.12240414
H        2.29951957      -0.58910786       1.46599948      -0.00591554       0.10533110      -0.06268132
H        2.17229131       1.62522813      -0.32084436       0.00450474      -0.08173227       0.09030475
H        0.48080740      -0.04436939      -1.97541343       0.25265190      -0.11787490      -0.27182602
H       -0.89325897       1.92414130      -0.33610793       0.05913657       0.04480779      -0.03109915
H       -1.67407705       0.80922243      -1.48329733      -0.05115596       0.12739402      -0.06762470
H       -2.52919685       0.30763490       0.98075601       0.13863755      -0.08289530      -0.01541041
H       -1.01918872      -1.64930976       1.68993359      -0.00360614       0.11773051      -0.08447533
H        0.58622503      -1.97750389      -0.41625842       0.23557746      -0.29829870      -0.20286344
15
Properties=species:S:1:pos:R:3:forces:R:3 source=etkdg-seed2 energy=-73.98947915387951 pbc="F F F"
C       -1.57980759      -0.71963154      -0.42560100      -0.12831582       0.57522562       0.32230632
C       -1.63586149       0.59342288      -0.12975257       0.27608707      -0.59673447       0.03878909
C       -0.38448099       0.55485129       0.73650861      -0.38768106       0.19143951      -0.11353727
C        0.91185838       1.14113355       0.15596914       0.19661598      -0.27396294      -0.10753113
C        1.58476314      -0.02470123      -0.51131946       0.21592997      -0.31673814      -0.30313151
C        0.90562887      -1.17214984      -0.39017875       0.87558696       0.24846571      -0.30071384
C       -0.32993493      -0.96165281       0.39537028      -0.41769884       0.11046898      -0.20449370
H       -2.19570697      -1.37938369      -1.02962792      -0.00504083       0.12220885       0.00969504
H       -2.31249999       1.39699805      -0.40487167       0.00521834      -0.11315984      -0.04491929
H       -0.53382079       0.78700605       1.79751211      -0.24957196      -0.00836442       0.29876587
H        0.71421431       1.94734915      -0.55758548      -0.06367754       0.04838373       0.00881053
H        1.55343102       1.52720766       0.95501630       0.03797520       0.14818387       0.00386811
H        2.52149875       0.07106361      -1.04420302      -0.13138558      -0.07975269       0.05196540
H        1.20700786      -2.12555928      -0.79998791      -0.00903567       0.14270360       0.02381655
H       -0.42628957      -1.63595385       1.25275134      -0.21500624      -0.19836738       0.31630985
15
Properties=species:S:1:pos:R:3:forces:R:3 source=etkdg-seed3 energy=-73.98948020859285 pbc="F F F"
C       -1.69644405       0.36839685      -0.42560939       0.01333083      -0.63641854       0.21466838
C       -1.42231982      -0.94839565      -0.35013757       0.11152696       0.63025121       0.15558982
C       -0.25337347      -0.75317063       0.60553140      -0.32123287      -0.25861637      -0.17262398
C        1.16924147      -0.88837336       0.04061270       0.12295048       0.32861669      -0.04645659
C        1.54134459       0.50630951      -0.37609475       0.13719827       0.40850609      -0.23050510
C        0.58576396       1.40982646      -0.12497634       0.91974964       0.03318339      -0.26787116
C       -0.57984795       0.76502252       0.51813627      -0.36790346      -0.17297979      -0.25146417
H       -2.44060745       0.95013563      -0.96157316       0.02631816      -0.11941542      -0.01049265
H       -1.85928679      -1.83358382      -0.80264856      -0.02257487       0.11700246      -0.02558574
H       -0.37387829      -1.19747602       1.60051828      -0.25330937      -0.10633661       0.27591799
H        1.86104468      -1.23721518       0.81447299       0.07474263      -0.13245030      -0.01705485
H        1.21041082      -1.58035952      -0.80653940      -0.04931922      -0.06342616      -0.00407945
H        2.48871376       0.74088738      -0.84308079      -0.14921760       0.03427472       0.05376760
H        0.64507988       2.46481285      -0.35135503       0.02723912      -0.14237542      -0.00024873
H       -0.87584135       1.23318299       1.46274334      -0.26949870       0.08018404       0.32643864
15
Properties=species:S:1:pos:R:3:forces:R:3 source=etkdg-seed4 energy=-73.9894767761486 pbc="F F F"
C        1.77405710       0.21323471      -0.04566728      -0.11755112      -0.66096228      -0.02183131
C        1.35489894      -0.99615371      -0.46574794      -0.07081761       0.55508982       0.34746505
C        0.06211789      -0.93871285       0.33629337       0.31780856      -0.23608151      -0.20751371
C       -1.24424791      -0.65698090      -0.42217869      -0.07776292       0.34104570       0.05398804
C       -1.38897134       0.83777353      -0.37737277      -0.05085179       0.47737892      -0.09138608
C       -0.40390247       1.44818972       0.29312416      -0.84920338       0.26313012      -0.35828600
C        0.55561436       0.45416265       0.82157208       0.38656896      -0.13815195      -0.24497994
H        2.65797737       0.81177872      -0.24538289      -0.03637506      -0.10382882      -0.05443612
H        1.77020814      -1.74440199      -1.13425913       0.03884930       0.11383729       0.01957435
H       -0.04247299      -1.69442932       1.12361793       0.18797491      -0.22859439       0.25304475
H       -2.09469963      -1.12355769       0.08593564      -0.08396540      -0.10621120      -0.07134595
H       -1.20686356      -1.02168515      -1.45358437       0.04237621      -0.06566404      -0.01921408
H       -2.20892494       1.35759570      -0.85494145       0.14008665      -0.00902536       0.08139188
H       -0.31169161       2.51498509       0.43874763      -0.04146710      -0.12841841      -0.05289027
H        0.72690066       0.53820149       1.89984372       0.21432980      -0.07354390       0.36641940
15
Properties=species:S:1:pos:R:3:forces:R:3 source=etkdg-seed5 energy=-73.98948067771713 pbc="F F F"
C        1.57506787       0.80209241      -0.26578358       0.13105440      -0.60685373       0.25633672
C        1.65592398      -0.53546094      -0.12724046      -0.29414588       0.58114779       0.09784856
C        0.36928913      -0.63081253       0.68104909       0.39724385      -0.16731028      -0.11842257
C       -0.88491830      -1.17236000      -0.02246758      -0.19964457       0.28032526      -0.08257374
C       -1.56237406       0.04975692      -0.57448979      -0.21212518       0.34596870      -0.27227178
C       -0.92150976       1.18950580      -0.28673868      -0.85506240      -0.23041918      -0.36686472
C        0.28603274       0.91414724       0.52198693       0.42881671      -0.07525262      -0.19746349
H        2.19649221       1.54409124      -0.75845510       0.00806150      -0.12237237      -0.00481993
H        2.36576733      -1.28404121      -0.46637939      -0.00656486       0.11763754      -0.03120041
H        0.48124049      -0.98604568       1.71216648       0.23670498      -0.02207730       0.30838148
H       -1.54775116      -1.66689532       0.69532851      -0.03392309      -0.14839596      -0.01558793
H       -0.63531030      -1.88162913      -0.81797942       0.06459470      -0.04761417       0.00574476
H       -2.47323471      -0.00246972      -1.15605311       0.12683894       0.07589295       0.06693562
H       -1.23253676       2.17825392      -0.59235400       0.01209786      -0.14426124       0.00694056
H        0.32782130       1.48186700       1.45741009       0.19605303       0.16358461       0.34701688
15
Properties=species:S:1:pos:R:3:forces:R:3 source=etkdg-seed6 energy=-73.98947841835576 pbc="F F F"
C        1.71365977      -0.36076675       0.35779654      -0.00445808       0.45087250      -0.49795959
C        1.52438412       0.78381405      -0.32695832      -0.18041092      -0.60436780       0.18976117
C        0.19997422       0.32677264      -0.92269599       0.36312280       0.26024274      -0.01513060
C       -1.09362248       0.91916368      -0.34224122      -0.13619479      -0.24480985       0.21627932
C       -1.48748540      -0.03655767       0.74804121      -0.12481275      -0.22399909       0.41599560
C       -0.65428006      -1.07739932       0.87031823      -0.86128250       0.23193872       0.35094669
C        0.42849005      -0.99417564      -0.13402113       0.41642460       0.21691122       0.08983589
H        2.49471105      -0.71620784       1.02343402      -0.01563882       0.11225775      -0.04695098
H        2.09290334       1.70400193      -0.42341088       0.01827002      -0.09240682       0.07729673
H        0.18173850       0.21901750      -2.01355933       0.20993676      -0.07626129      -0.31895239
H       -1.87983767       0.95151605      -1.10379490      -0.06121706       0.13372515      -0.04229655
H       -0.94214421       1.92951070       0.05077254       0.05363008       0.04978893      -0.03337180
H       -2.35648789       0.12004969       1.37327605       0.13516661      -0.07692762      -0.04622587
H       -0.74882063      -1.87484897       1.59343513      -0.01668034       0.12741844      -0.06706555
H        0.52681730      -1.89389005      -0.75039194       0.20414439      -0.26438298      -0.27216205
15
Properties=species:S:1:pos:R:3:forces:R:3 source=etkdg-seed7 energy=-73.98947806896156 pbc="F F F"
C       -1.31024750      -1.20823198      -0.13496819       0.57842498      -0.32853476      -0.09320545
C       -0.13903800      -1.60571025      -0.66887726      -0.35984386       0.36311024       0.41528409
C        0.69193828      -0.68735976       0.21654044      -0.03566988      -0.36578140      -0.25449169
C        1.28292014       0.58213902      -0.41620214      -0.20695950       0.26930502       0.09946749
C        0.23966800       1.63785384      -0.18310070      -0.33546368       0.35408924      -0.03000043
C       -0.82804327       1.19174560       0.49033530       0.32997441       0.85907840      -0.26823917
C       -0.66382762      -0.23798852       0.83225404      -0.15654243      -0.35084642      -0.28443750
H       -2.34701986      -1.47445498      -0.31849967       0.09987070      -0.03150678      -0.06398428
H        0.12959948      -2.31304853      -1.44783271      -0.11086149       0.04043449       0.03049759
H        1.37459373      -1.18865518       0.91268098       0.06541606      -0.32062648       0.21105736
H        1.48515993       0.45251654      -1.48414621       0.02169772      -0.07156381      -0.02962172
H        2.21294648       0.86773847       0.08641837       0.13155808       0.00534237      -0.07796766
H        0.34920153       2.65315277      -0.54056448      -0.07952248      -0.12264058       0.07044688
H       -1.69316394       1.78203686       0.75657485       0.12197585      -0.04346916      -0.06509994
H       -0.78468737      -0.45173390       1.89938738      -0.06405450      -0.25639037       0.34029444
15
Properties=species:S:1:pos:R:3:forces:R:3 source=etkdg-seed8 energy=-73.98947876720572 pbc="F F F"
C        1.66480908       0.55115297      -0.34562515       0.05002059      -0.61064931       0.27529883
C        1.55377735      -0.77827520      -0.15834763      -0.20203478       0.62117124       0.08454665
C        0.29754247      -0.65535711       0.69289645       0.36383801      -0.22803964      -0.12426282
C       -1.04741330      -1.02878338       0.05032866      -0.15929860       0.30384561      -0.08698612
C       -1.55819523       0.26091042      -0.52676450      -0.16895001       0.36422506      -0.27859501
C       -0.74709122       1.30239250      -0.30324504      -0.89244952      -0.11363829      -0.33076187
C        0.43586242       0.87875416       0.47724693       0.40558673      -0.14435096      -0.20780376
H        2.36979829       1.17627318      -0.88568965      -0.01012978      -0.12229716      -0.00035532
H        2.13333041      -1.63445613      -0.49051704       0.00961449       0.11619120      -0.03549112
H        0.39391007      -0.98858912       1.73289458       0.24204878      -0.04649093       0.30144960
H       -1.74882814      -1.39567146       0.80700127      -0.05585238      -0.14220679      -0.00879244
H       -0.93376635      -1.79332241      -0.72476524       0.05708513      -0.05641643       0.00554616
H       -2.48756928       0.32448281      -1.07706692       0.13896004       0.05852327       0.05995340
H       -0.92082548       2.31548964      -0.63672944      -0.00895759      -0.14416117       0.01207292
H        0.59465890       1.46499913       1.38838273       0.23051888       0.14429430       0.33418090
15
Properties=species:S:1:pos:R:3:forces:R:3 source=etkdg-seed9 energy=-73.98947665832331 pbc="F F F"
C       -1.57014671      -0.42071887       0.74326378      -0.13578169       0.34120717      -0.56244742
C       -1.63945050       0.57565908      -0.16073217       0.28057635      -0.53755585       0.25716461
C       -0.39535853       0.11854111      -0.90981917      -0.38821274       0.22143928       0.00892412
C        0.90114708       0.91847627      -0.70875888       0.19975320      -0.18477256       0.22631104
C        1.58927895       0.23506562       0.43870312       0.22112627      -0.12546396       0.41735109
C        0.91848989      -0.82486868       0.90680240       0.87610981       0.36685277       0.12898926
C       -0.32550371      -1.03250703       0.13389777      -0.41681005       0.19576679       0.12830748
H       -2.17539352      -0.69866893       1.60109491      -0.00612068       0.10155064      -0.06862530
H       -2.32020138       1.40851860      -0.30968839       0.00653766      -0.07631240       0.09481071
H       -0.55578010      -0.20298854      -1.94558394      -0.25208888      -0.15527371      -0.25293130
H        1.53261051       0.86221558      -1.60163763       0.03672226       0.12711928      -0.07688638
H        0.70313462       1.97113933      -0.48314830      -0.06411937       0.03754352      -0.03074476
H        2.52978958       0.58373808       0.84426090      -0.13118900      -0.09538305      -0.00435898
H        1.23116812      -1.45146391       1.72982798      -0.01039382       0.11237732      -0.09093016
H       -0.42378430      -2.04213770      -0.27848238      -0.21610932      -0.32909525      -0.17493401
15
Properties=species:S:1:pos:R:3:momenta:R:3:forces:R:3 source=md-300K-step50 energy=-73.61237360099636 pbc="F F F"
C        1.68840017      -0.23724495       0.53922865       0.11463431       0.62573639      -1.13289107       0.27660233      -0.72340442       0.20805456
C        1.60211901       0.73698209      -0.35263368       0.32129855       0.29653518      -0.64122546      -0.42998533      -0.51550240      -0.07488397
C        0.37588003       0.15157941      -0.97657215       0.30575645      -0.63727036       0.39513140      -2.29878303       0.30255673       1.15045464
C       -1.06496904       0.85751409      -0.61619496      -0.05249883       0.31560071      -0.01073366       0.74060091      -2.03795208       0.08008692
C       -1.55192293       0.13327753       0.66111202       1.11295665      -0.15329123       0.18512956      -0.15111624       1.79906778      -2.18354231
C       -0.77777927      -0.83235322       1.02870539       0.01694500       0.42840041       1.09426647       1.74455739      -1.95078911       0.39903988
C        0.45795509      -1.04132991       0.08439688      -0.86800785       0.06216434       0.46213484      -0.77619590       2.81777534       0.75935163
H        2.38481086      -0.30962896       1.34817255       0.12346547       0.09956926      -0.06899537       0.30392271      -0.23677196       0.43778721
H        2.21093436       1.61673143      -0.47796632      -0.07576435       0.10163936      -0.12751634       0.02419152       0.22282927      -0.11523533
H        0.48864291      -0.25117807      -1.96176488      -0.13051464      -0.06268398      -0.03008982       0.14015168      -0.08357217      -1.18738425
H       -0.94932712       1.88495326      -0.38009349      -0.04377288       0.07099088      -0.07879427       0.33934511       1.07580892       0.06766273
H       -1.80339588       0.81308014      -1.44456444       0.07644951      -0.12824177      -0.08724180       0.36892709      -0.18693882       0.35284737
H       -2.35703368       0.52586020       1.21376403      -0.00545705       0.21243705       0.10331136      -0.73889714       0.10445277       0.60566944
H       -0.90350865      -1.33199836       1.98733148      -0.00976550      -0.16270470      -0.06872936       0.13712937       0.00856247      -0.42596729
H        0.54669467      -2.01137100      -0.39330892      -0.07113054      -0.00788413      -0.01292809       0.31954951      -0.59612233      -0.07394123
15
Properties=species:S:1:pos:R:3:momenta:R:3:forces:R:3 source=md-300K-step100 energy=-73.74883225852447 pbc="F F F"
C        1.75812433      -0.20304813       0.45149051       0.13153285       0.41897137      -0.15455401       0.52465875       0.20622160       0.68735789
C        1.52305562       0.68879985      -0.51182038       0.07783708       0.31568222      -0.76801919       1.75315065       1.46172727      -0.34810750
C        0.25538947       0.12242605      -0.99175124       0.47413286      -0.73299740      -0.48346754      -0.45132251      -1.45580243      -0.11472561
C       -1.01054509       0.83531321      -0.59019696      -1.12551794       0.25565696       0.24371501      -0.65770667       0.76043694       0.43448915
C       -1.43960581       0.23777037       0.74756083      -0.23234289       1.40533325       0.52001082      -2.24898630       2.07425206      -0.73293657
C       -0.69320174      -0.76036025       1.10746342       0.84083756       0.26139052       0.48107594       1.18786469      -0.57957577       0.14451258
C        0.50744530      -0.91827521       0.18761831       0.58885754      -0.87318786       0.37391130      -1.48722706      -1.51332431      -0.81466204
H        2.52217658      -0.38031580       1.22008649       0.06999983       0.05278216      -0.05126198      -0.18270308       0.26775798      -0.34144956
H        2.07911254       1.57136380      -0.81470144       0.13593448      -0.06225124      -0.17054988       0.05043487      -0.00603582      -0.01492151
H        0.20380716      -0.33030648      -2.01467702      -0.07891088      -0.29333800      -0.19695993       0.40960950       0.11881038       0.28522689
H       -0.77585206       1.91963345      -0.53243209      -0.03267174       0.22228446       0.18448654      -0.32004597      -0.36226923       0.15360434
H       -1.82526931       0.70189610      -1.32856432      -0.08054717       0.21272118       0.04230389       0.27637233       0.08374059       0.11776359
H       -2.41017610       0.56823630       1.20121436      -0.07162470      -0.13751946      -0.02447305       1.22624209      -0.59882009      -0.28449319
H       -0.92105994      -1.40304063       1.90959444      -0.03330636       0.14561423       0.14839604      -0.05226677      -0.49905220       0.75439256
H        0.66054053      -1.95383643      -0.18491870       0.13062363      -0.15588229      -0.16332053      -0.02807452       0.04193303       0.07394898
15
Properties=species:S:1:pos:R:3:momenta:R:3:forces:R:3 source=md-300K-step150 energy=-73.78956049646736 pbc="F F F"
C        1.78215896      -0.10778216       0.40378410       0.27929505      -0.15641575      -0.16655301      -0.43903727       0.30393954      -1.08609051
C        1.54364159       0.65700573      -0.67904270      -0.53455316      -0.40343005      -1.12879571       1.11823024       0.24699650       0.90417563
C        0.22028245       0.04450563      -0.97172194      -0.55403844       0.91609830      -0.39740602      -0.37008995      -0.25604896      -2.22269099
C       -1.01789476       0.84961040      -0.53220166       0.97142670      -0.50587349       0.12069119      -0.22741202       1.13320642      -0.15300899
C       -1.44950893       0.28867295       0.79736547      -0.35863905       0.06378269      -0.27894480       2.06867503      -0.60770914      -0.62649832
C       -0.56070731      -0.64901947       1.17503877       1.00281601      -0.15924774       0.55782414      -1.70163469       0.04417241       1.59780931
C        0.49154725      -0.90012351       0.18758894      -0.08907266       1.18313106       1.13866896       1.09596226      -1.10891505       0.58695133
H        2.63091191      -0.07882415       1.07332148      -0.03578053      -0.00393752       0.02302130       0.04012248      -0.17987077       0.17372790
H        2.18203603       1.44185122      -1.08276500      -0.10185607      -0.06599681      -0.09261798      -0.25378592       0.01312623      -0.10364265
H        0.17633032      -0.38169118      -2.03347382      -0.25171739       0.01903247       0.02640022      -0.01526715       0.15471012       1.01738625
H       -0.71247483       1.94205541      -0.52574159      -0.00418140      -0.15167173      -0.05579355      -0.53293829      -0.96167998       0.26730178
H       -1.85898475       0.73562724      -1.22485275       0.15892584      -0.09164253      -0.05086553       0.09149437       0.08528633      -0.24104355
H       -2.29215116       0.58942831       1.34320134       0.25709697       0.14533013       0.19698238      -0.83152245       0.30466470       0.57437047
H       -0.64603576      -1.21271756       2.10891428       0.00493467       0.07980224       0.16447471       0.05879919       0.29965785      -0.46225756
H        0.67409347      -1.99521909      -0.00587517       0.03089673       0.14118581      -0.07533907      -0.10159581       0.52846382      -0.22649009
15
Properties=species:S:1:pos:R:3:momenta:R:3:forces:R:3 source=md-300K-step200 energy=-73.63572278357204 pbc="F F F"
C        1.83420821      -0.04122562       0.27264773       0.26135129       0.47514224      -0.79146222      -0.38665618      -0.03741873      -0.26296029
C        1.57630010       0.67647378      -0.83828277      -0.17277726      -0.09173309      -0.24727131      -0.38458786      -1.01417635       1.35870359
C        0.22773222       0.00625148      -0.99777044      -0.04330595      -0.61979441       0.10260846      -1.53856350       0.73377142      -0.53095286
C       -1.08642742       0.86052174      -0.53747093      -0.33447856      -0.05361990       0.54320909       1.07702910      -1.58911873       0.40528623
C       -1.39054594       0.32360691       0.85354758       0.14664193       0.73743494       0.71654521       0.22446779      -0.64657618       1.28664504
C       -0.51009924      -0.61323120       1.34729432       0.68737203       0.79868982      -0.45462010      -1.49900235       2.42603235      -1.73315217
C        0.51775492      -0.86230627       0.24339136      -0.06339637      -0.53823415       0.21352207       1.24147489       0.09937371       0.94817734
H        2.67213402      -0.03589532       0.95763714       0.17012526       0.17293977      -0.17128320       0.08608005       0.03007784       0.01600590
H        2.14606940       1.46805375      -1.31093582       0.12346224      -0.04495492       0.00095380      -0.10982913      -0.00555774      -0.05571251
H        0.18280678      -0.58924084      -1.92805410       0.08040570       0.16725520       0.11489828      -0.32430556       0.07386098      -0.06263455
H       -0.78933150       1.88313505      -0.46404181       0.01052823      -0.19675451      -0.17778471       0.19066346       0.85343131       0.03160567
H       -1.98637004       0.85045071      -1.16171554      -0.03298043      -0.02703746       0.06260678       0.18373123      -0.31716035      -0.28503682
H       -2.22112922       0.74371973       1.45763525      -0.28552861      -0.13389256       0.13182066       0.81397988      -0.46107367      -0.54612268
H       -0.56058600      -0.89581285       2.38968740       0.07425464       0.18132343      -0.17233990       0.36103033      -0.31367447      -0.23545589
H        0.68387224      -1.94977613       0.10777476       0.13506602       0.15887885       0.11078706       0.06448785       0.16820861      -0.33439599
15
Properties=species:S:1:pos:R:3:momenta:R:3:forces:R:3 source=md-300K-step250 energy=-73.74507493292766 pbc="F F F"
C        1.90771723      -0.00812804       0.20204428       0.34056598       0.46409545      -1.04450851      -0.71105362       0.00023306      -0.69621567
C        1.45217448       0.65380284      -0.88494027       0.11201044       0.35165482      -0.39801757       1.27737381       0.69207479      -0.42039070
C        0.13325537      -0.03310032      -0.96916526       0.16358720      -0.38148745       0.07600454       0.20214730       0.65296875       0.45660798
C       -1.07290211       0.78827188      -0.48723754      -0.90514658       0.07259710      -0.23859798      -0.90481600      -0.86088032      -0.62409883
C       -1.31443446       0.43084320       0.92319146       1.27992610      -0.53582880       0.51725503       0.40152386      -0.43164929       0.47444326
C       -0.36858198      -0.43274690       1.35405390       0.25693298       0.89041217       0.97358111      -1.06097539       0.54029611      -0.30408813
C        0.62275247      -0.80081270       0.25252498      -0.50464603      -0.12937923       0.25655296      -0.59384812       0.08840791       1.61922340
H        2.80777749      -0.06944907       0.82132922      -0.06839168      -0.15939683       0.04738004      -0.16492107       0.21831601      -0.29970437
H        1.85109181       1.39641871      -1.57199563      -0.17653194       0.04605217      -0.13397634       0.22104880       0.04973379       0.20273559
H       -0.04483306      -0.66286459      -1.82476909       0.18787610      -0.13392127       0.10527268       0.00131723      -0.46805557      -0.89938425
H       -0.94225095       1.83491547      -0.63060615      -0.03016395       0.17535999      -0.17748989       0.33388207       1.05007859      -0.03720970
H       -1.95715110       0.51399842      -1.08183282      -0.17807072       0.12749332       0.06900611      -0.01175971       0.07350895      -0.02611918
H       -2.25189000       0.70346459       1.41214290       0.32268015       0.12522121      -0.18124198       0.51278800      -0.20346485       0.10602002
H       -0.51609651      -0.97224303       2.25750467      -0.16031110      -0.02148951       0.12943127       0.26968816      -0.27694208       0.49741519
H        0.71309531      -1.85323931       0.05956484       0.09806647       0.07035073      -0.01802945       0.22760468      -1.12462585      -0.04923461
15
Properties=species:S:1:pos:R:3:momenta:R:3:forces:R:3 source=md-300K-step300 energy=-73.66669195533774 pbc="F F F"
C        1.88614951       0.00583834       0.05766048       0.41249161       0.49452347      -0.40050932       0.33348516       0.11528381       0.61795053
C        1.42611036       0.65931532      -0.99046538      -0.36070917      -0.74323388       0.00061574       0.50336749       0.37495145      -0.22525430
C        0.09479778      -0.02090146      -0.99455932      -0.47767214       0.13437640       0.10186087       0.36046796      -0.67753462       0.70166188
C       -1.09978322       0.74486976      -0.50676099       0.50370496      -0.50362149       1.03331376      -0.62793905       1.47747638       0.70044736
C       -1.20416272       0.47081627       1.03123704       0.45553892       0.17296338       0.74826345      -0.55650795       0.79380661      -2.62455558