19
Properties=species:S:1:pos:R:3:forces:R:3 source=etkdg-seed0 energy=-97.00686722508635 pbc="F F F"
N        3.45711779      -0.02993463      -0.46935877      -0.58682477       0.19347433       0.62398715
C        2.06962962      -0.01906215      -0.29214054       0.05477412      -0.26241638      -0.75420888
C        1.31694680       1.08474947      -0.70640512      -0.77571835       0.38054054       0.10234211
C       -0.07931793       1.06211059      -0.64694925       0.51271010      -0.34778881       0.19883827
C       -0.72900315      -0.08957597      -0.19988529       1.01095926      -0.06455013      -0.28265488
S       -2.49533994      -0.13970684      -0.15780056       0.46676393       0.31092682       0.82914673
O       -2.93652620      -1.51415908      -0.20618731      -0.43274139      -1.74743312      -0.10961145
O       -3.02418003       0.87510677      -1.03904244      -0.54339282       1.26871284      -1.16098492
N       -2.81990837       0.39200137       1.40170429      -0.26505776       0.29076789       0.81019912
C        0.00456490      -1.22436710       0.15006619       0.47958998       0.43263155      -0.07300884
C        1.40031595      -1.18772796       0.08572998      -0.75041547      -0.28353978       0.33379584
H        3.94425226      -0.70180326       0.11534290       0.27048605       0.24727843      -0.22502028
H        3.88586308       0.88977547      -0.43944730       0.29403820      -0.31205749      -0.02903239
H        1.81466662       1.97430613      -1.08448090      -0.08873395      -0.38054590       0.16758669
H       -0.64555152       1.93471562      -0.96376754       0.06025885      -0.36236780       0.12343019
H       -3.28591897      -0.34772939       1.92752492       0.15204366       0.72170988      -0.42448655
H       -3.34511923       1.26588056       1.36504815       0.22484323      -0.84451903       0.10225967
H       -0.49607418      -2.13973353       0.45649511       0.03362298       0.36364737      -0.12964253
H        1.96358249      -2.08484607       0.33044899      -0.11720584       0.39552878      -0.10293506
19
Properties=species:S:1:pos:R:3:forces:R:3 source=etkdg-seed1 energy=-97.00686722508635 pbc="F F F"
N        3.45711779      -0.02993463      -0.46935877      -0.58682477       0.19347433       0.62398715
C        2.06962962      -0.01906215      -0.29214054       0.05477412      -0.26241638      -0.75420888
C        1.31694680       1.08474947      -0.70640512      -0.77571835       0.38054054       0.10234211
C       -0.07931793       1.06211059      -0.64694925       0.51271010      -0.34778881       0.19883827
C       -0.72900315      -0.08957597      -0.19988529       1.01095926      -0.06455013      -0.28265488
S       -2.49533994      -0.13970684      -0.15780056       0.46676393       0.31092682       0.82914673
O       -2.93652620      -1.51415908      -0.20618731      -0.43274139      -1.74743312      -0.10961145
O       -3.02418003       0.87510677      -1.03904244      -0.54339282       1.26871284      -1.16098492
N       -2.81990837       0.39200137       1.40170429      -0.26505776       0.29076789       0.81019912
C        0.00456490      -1.22436710       0.15006619       0.47958998       0.43263155      -0.07300884
C        1.40031595      -1.18772796       0.08572998      -0.75041547      -0.28353978       0.33379584
H        3.94425226      -0.70180326       0.11534290       0.27048605       0.24727843      -0.22502028
H        3.88586308       0.88977547      -0.43944730       0.29403820      -0.31205749      -0.02903239
H        1.81466662       1.97430613      -1.08448090      -0.08873395      -0.38054590       0.16758669
H       -0.64555152       1.93471562      -0.96376754       0.06025885      -0.36236780       0.12343019
H       -3.28591897      -0.34772939       1.92752492       0.15204366       0.72170988      -0.42448655
H       -3.34511923       1.26588056       1.36504815       0.22484323      -0.84451903       0.10225967
H       -0.49607418      -2.13973353       0.45649511       0.03362298       0.36364737      -0.12964253
H        1.96358249      -2.08484607       0.33044899      -0.11720584       0.39552878      -0.10293506
19
Properties=species:S:1:pos:R:3:forces:R:3 source=etkdg-seed2 energy=-96.88329241460937 pbc="F F F"
N        3.31706516       0.64014958      -0.40510946      -0.48061872       0.01471003       0.73165599
C        1.97580326       0.40750442      -0.08318135      -0.01563975      -0.12613902      -0.79223393
C        1.52798119      -0.89500219       0.16144896      -0.63016616      -0.43752653       0.36715250
C        0.17072740      -1.15824984       0.36168842       0.34929557       0.48012996      -0.20476550
C       -0.75114543      -0.11431123       0.26564798       0.91038970       0.13069889      -0.10912978
S       -2.47329556      -0.45129828       0.51100872       0.37502015      -0.17991574      -0.87583822
O       -2.59661747      -1.56679253       1.41826810      -0.00835526      -1.40381468       1.27928286
O       -3.16304411       0.80136379       0.71830444      -0.72448777       1.62396738       0.25923397
N       -2.93438462      -0.97303468      -1.02298739       0.00314530       0.31032488      -1.08425789
C       -0.32782614       1.18397744      -0.02094332       0.57385022      -0.31318929      -0.08158658
C        1.03300084       1.43233612      -0.21862770      -0.77696122       0.23937165       0.25556306
H        3.61675270       1.59924752      -0.25746256       0.31142825      -0.27379892      -0.12227804
H        3.96196037      -0.02782298       0.00665562       0.18737216       0.32436100      -0.21957638
H        2.23776146      -1.71768513       0.20469647      -0.18961248       0.38665441      -0.02831118
H       -0.15652307      -2.17254350       0.58134536      -0.01134955       0.39999758      -0.05736111
H       -3.60724364      -0.30776646      -1.40773734       0.57826163      -0.55392254       0.22233220
H       -2.14467151      -1.12038327      -1.65076179      -0.55633581       0.17158190       0.28529740
H       -1.04083518       2.00126341      -0.10237823       0.12471835      -0.37450910       0.07082760
H        1.35453434       2.43904781      -0.47490346      -0.01995462      -0.41898184       0.10399303
19
Properties=species:S:1:pos:R:3:forces:R:3 source=etkdg-seed3 energy=-96.88329160098894 pbc="F F F"
N       -3.28427391       0.80351083      -0.29991031       0.34973084      -0.69249848       0.40577966
C       -1.99040461       0.31861495      -0.08191337       0.16164334       0.66567852      -0.41776769
C       -1.36524724      -0.47449450      -1.04993601       0.63155418      -0.55955512      -0.10670369
C       -0.03137330      -0.86276191      -0.90309510      -0.39150985       0.40959936       0.27092610
C        0.69672094      -0.41000381       0.19861725      -0.89062686       0.21860804      -0.12967439
S        2.39109369      -0.89597330       0.37888887      -0.19551955       0.74738948      -0.58587452
O        2.56409136      -2.18974360      -0.23664829       0.05340750      -1.74241488      -0.75395266
O        2.80939539      -0.61545361       1.73322223       0.37883555       0.38450445       1.71406021
N        3.17141878       0.24718548      -0.58144106       0.11271387       1.11262697      -0.14583386
C        0.10270250       0.41767937       1.15201658      -0.49004858      -0.01425202      -0.44011220
C       -1.23243586       0.79772490       0.99206950       0.67310119      -0.18878859       0.48743325
H       -3.85860823       0.19984286      -0.88073071      -0.20450929       0.34694596       0.16227493
H       -3.76682726       1.08787110       0.54729813      -0.23551159       0.02010195      -0.36198395
H       -1.91769642      -0.80305553      -1.92704108       0.12096334       0.17202451       0.37687347
H        0.43000003      -1.50529184      -1.65037283      -0.05007991       0.21673514       0.33754893
H        2.52821693       0.81276256      -1.13449870       0.46587106      -0.22794159       0.38903181
H        3.76917407       0.82321029       0.01373650      -0.49983250      -0.38934494      -0.53776432
H        0.66522927       0.77843376       2.01014838      -0.06669397      -0.21025550      -0.33492915
H       -1.68117613       1.46994201       1.71959000       0.07651125      -0.26916327      -0.32933195
19
Properties=species:S:1:pos:R:3:forces:R:3 source=etkdg-seed4 energy=-97.00686736849036 pbc="F F F"
N       -3.40682730       0.72331620       0.15858705       0.60438527      -0.45236797       0.44857832
C       -2.03967601       0.43500333       0.09210077      -0.08857937       0.46575798      -0.64491138
C       -1.58192697      -0.62001356      -0.70410998       0.68840814      -0.51664572      -0.12726742
C       -0.21328580      -0.84552924      -0.87605921      -0.40399114       0.35904606       0.36227037
C        0.70554228       0.01421884      -0.27196727      -1.00268044       0.30608303      -0.08391290
S        2.43741239      -0.24157137      -0.51574437      -0.41703444      -0.43674283       0.79838003
O        2.64074569      -1.04642512      -1.69767977       0.13277667      -0.97041977      -1.51442268
O        3.14064988       1.00032720      -0.29381985       0.76384163       1.61335021       0.25777859
N        2.82817141      -1.22920494       0.78502504       0.30051245      -0.51520639       0.67489264
C        0.26511021       1.11316998       0.46740063      -0.56289635      -0.31028942      -0.09685106
C       -1.10646031       1.32669241       0.63112360       0.82643780       0.05239805       0.26305297
H       -3.67445822       1.27844950       0.96529907      -0.33978821      -0.12734207      -0.23080449
H       -4.00746194      -0.08496754       0.03013723      -0.22558594       0.35203144       0.09932250
H       -2.29150557      -1.27570717      -1.20264913       0.18354260       0.29938876       0.23968799
H        0.12185768      -1.67775381      -1.49048167       0.02983345       0.31897127       0.21804560
H        3.49379800      -0.75093027       1.39251989      -0.36543569      -0.54706559      -0.58430561
H        3.15618276      -2.13322113       0.44441047      -0.02284637       0.77744391       0.34530600
H        0.97434787       1.81260207       0.90353176      -0.12206735      -0.30296418      -0.20853555
H       -1.44221604       2.20154462       1.18237574       0.02116731      -0.36542677      -0.21630392
19
Properties=species:S:1:pos:R:3:forces:R:3 source=etkdg-seed5 energy=-96.88329335639546 pbc="F F F"
N        3.28219050       0.74510651      -0.44054118      -0.34469813      -0.71614159       0.36719503
C        1.99023859       0.27526667      -0.18197759      -0.16700646       0.70310644      -0.34861488
C        1.28294063      -0.41545991      -1.17169376      -0.65348910      -0.53246701      -0.11307003
C       -0.05040532      -0.78192133      -0.97312866       0.41963349       0.37483908       0.27903149
C       -0.69515498      -0.40831829       0.20737971       0.88710275       0.20694226      -0.16747861
S       -2.38902447      -0.86607910       0.45400473       0.18138128       0.79021647      -0.53174197
O       -2.63853631      -2.09709494      -0.25662844      -0.15224890      -1.66882228      -0.89395959
O       -2.71430450      -0.69350957       1.85125162      -0.26057621       0.24404527       1.76122786
N       -3.19238493       0.37477318      -0.35398794      -0.08796904       1.12350548      -0.04345963
C       -0.01878462       0.31887598       1.18748127       0.46129922       0.01177875      -0.47022724
C        1.31476637       0.67825130       0.97510603      -0.64710878      -0.21356609       0.51180096
H        3.80115421       0.17994593      -1.10604659       0.22448192       0.32645110       0.17766527
H        3.82445360       0.94312249       0.39505535       0.21321301       0.04550840      -0.37332981
H        1.77006109      -0.68046145      -2.10708327      -0.09223957       0.14171501       0.39707183
H       -0.57614911      -1.34581762      -1.74107940       0.07731732       0.18542205       0.35079957
H       -3.73466316       0.91173712       0.32494968       0.45374434      -0.35359082      -0.59975103
H       -2.56781834       0.97001911      -0.89717973      -0.44761434      -0.24916781       0.39735061
H       -0.51616064       0.61782981       2.10738013       0.03953520      -0.18207959      -0.35512873
H        1.82758135       1.27373412       1.72673804      -0.10475797      -0.23769512      -0.34538109
19
Properties=species:S:1:pos:R:3:forces:R:3 source=etkdg-seed6 energy=-96.88329350905133 pbc="F F F"
N       -3.19827887       1.11316754      -0.23217277       0.28267291      -0.82860989       0.00112872
C       -1.95428563       0.47957988      -0.14390150       0.22465246       0.76936419       0.03719690
C       -1.17536741       0.29825316      -1.29190396       0.64660519      -0.46041454      -0.31017777
C        0.11963550      -0.21930016      -1.20404923      -0.48237877       0.24640873       0.37501852
C        0.65582669      -0.51017401       0.05085269      -0.86647367       0.32648890      -0.02134044
S        2.29931374      -1.15887952       0.18387605      -0.12146970       0.95278391       0.13234833
O        2.71837772      -1.62308524      -1.11873116       0.38289140      -0.54965478      -1.66751351
O        2.37081137      -1.98564743       1.36455336      -0.08380833      -1.13595487       1.51982703
N        3.18982691       0.24160617       0.47297755       0.20978916       1.02466928      -0.42182198
C       -0.09063221      -0.29476310       1.21071451      -0.35930893       0.25167156      -0.44945343
C       -1.38388183       0.22328553       1.10744385       0.58299157      -0.48250739       0.38813821
H       -3.66821103       0.97805177      -1.12233555      -0.22709994       0.21639737       0.29750799
H       -3.81279806       0.92696862       0.55479833      -0.17664369       0.23608937      -0.31872882
H       -1.57652258       0.55495014      -2.26950856       0.05845625      -0.07543072       0.42148943
H        0.69717677      -0.37970934      -2.11162048      -0.07907825      -0.00997568       0.39304462
H        2.60629209       1.05776576       0.65416756       0.43838716      -0.42838546      -0.21130481
H        3.82507969       0.39485858      -0.31208234      -0.52264068      -0.02846658       0.64546357
H        0.32596407      -0.51703402       2.19111130      -0.03674597       0.02387029      -0.40188238
H       -1.94832691       0.42010569       2.01581032       0.12920184      -0.04834368      -0.40894018
19
Properties=species:S:1:pos:R:3:forces:R:3 source=etkdg-seed7 energy=-96.88329248889646 pbc="F F F"
N        3.36738640       0.14322038       0.40277776      -0.46694362      -0.61481222      -0.41289490
C        2.01112524      -0.07609514       0.13971724      -0.04001372       0.68795605       0.41097057
C        1.20308242      -0.70369070       1.09401923      -0.73791538      -0.41687449       0.08942836
C       -0.17591958      -0.81920566       0.90005591       0.52904713       0.31172076      -0.23872599
C       -0.75579239      -0.25590884      -0.23719158       0.91836149       0.08192200       0.08790316
S       -2.50384496      -0.38403892      -0.49691848       0.33986098       0.82088829       0.38822663
O       -2.75637019      -0.38735949      -1.91778972      -0.17062228      -0.09698855      -1.88913239
O       -3.02849544      -1.39704421       0.38990118      -0.51190856      -1.29092645       1.14052705
N       -3.04354718       1.08543485       0.12543384       0.03024323       0.63822241       0.92934215
C        0.02865796       0.41223856      -1.17905044       0.40457102      -0.11524225       0.46636298
C        1.40595737       0.51998388      -0.97175645      -0.67608573      -0.06152596      -0.51231715
H        3.92774043       0.30608614      -0.42854943       0.22422359      -0.01965455       0.37129816
H        3.78675845      -0.55055699       1.01456343       0.27321442       0.29487391      -0.15910135
H        1.64569056      -1.11487566       1.99820649      -0.07128217       0.18326662      -0.38482860
H       -0.78147938      -1.33671253       1.64063272       0.07745937       0.19346705      -0.34263845
H       -2.28550343       1.73160313       0.34290858      -0.52722730      -0.37732485      -0.00116139
H       -3.63169103       0.90103189       0.93994914       0.50650691       0.23054991      -0.61719110
H       -0.42097460       0.85588918      -2.06513096       0.03835725      -0.20991048       0.34334682
H        2.00721935       1.07000012      -1.69177847      -0.13984663      -0.23960719       0.33058544
19
Properties=species:S:1:pos:R:3:forces:R:3 source=etkdg-seed8 energy=-96.88329316020135 pbc="F F F"
N       -3.26534913       0.85206493      -0.36539470       0.34254509      -0.80304201       0.06552752
C       -1.97985694       0.32070354      -0.21737720       0.16646512       0.78482097      -0.01132957
C       -1.40834492       0.20863750       1.05475381       0.61443567      -0.40508462       0.42973625
C       -0.08203612      -0.20294300       1.21005597      -0.42491090       0.20474370      -0.45998385
C        0.69233480      -0.45572231       0.07721012      -0.87913095       0.25545566      -0.14035645
S        2.37878568      -0.97007124       0.25296962      -0.17022950       0.93918143      -0.17041757
O        2.72629271      -1.79421096      -0.87958860       0.28054929      -1.14655653      -1.48795734
O        2.59189214      -1.39239132       1.61829686       0.11871851      -0.50860036       1.71946778
N        3.19382954       0.49637790       0.10070245       0.04925171       1.04035221       0.43259722
C        0.15210279      -0.30711948      -1.20144089      -0.45296497       0.22402296       0.37295693
C       -1.17529869       0.10517365      -1.34127458       0.67941462      -0.43571004      -0.26813742
H       -3.71169974       0.61289393      -1.24584662      -0.24910946       0.22261086       0.27733836
H       -3.87563652       0.68380285       0.42878336      -0.18618936       0.19585287      -0.33746578
H       -1.99773823       0.43689775       1.93965065       0.13907130      -0.07254423      -0.40268759
H        0.33362302      -0.31163258       2.20924775      -0.00604881      -0.01828445      -0.40057582
H        2.59005277       1.26177354      -0.19776323       0.42553274      -0.39047750       0.29459037
H        3.66345310       0.70438881       0.98361669      -0.39413125      -0.07384048      -0.72788964
H        0.75443069      -0.49983391      -2.08698942      -0.11019472       0.02281265       0.38827461
H       -1.58083697       0.25121038      -2.33961205       0.05692587      -0.03571307       0.42631199
19
Properties=species:S:1:pos:R:3:forces:R:3 source=etkdg-seed9 energy=-97.00686559131474 pbc="F F F"
N       -3.43663764      -0.24868670      -0.52452788       0.72120088      -0.49528899      -0.07561779
C       -2.05819255      -0.14565669      -0.31023282      -0.24241614       0.73166712       0.21585326
C       -1.23193589       0.39762698      -1.29952006       0.83201669       0.05006894      -0.24953433
C        0.12659773       0.61818290      -1.05591338      -0.50971985      -0.29377710       0.27638049
C        0.65548764       0.32308427       0.20167612      -1.04277829       0.07788459      -0.11247540
S        2.36414685       0.63480686       0.52961222      -0.23904455      -0.90826694      -0.34638539
O        2.86837585       1.59202192      -0.42725617       0.50492206       1.23128784      -1.21730452
O        2.55860706       0.78615167       1.95277240       0.11387446       0.21397116       1.78720042
N        3.06846560      -0.83465109       0.12372821       0.46156848      -0.74434981      -0.21010086
C       -0.16984550      -0.15301098       1.22172385      -0.41289735      -0.03120513      -0.50190792
C       -1.52656394      -0.36884499       0.96417092       0.74500168      -0.17407439       0.41183414
H       -3.69640196      -0.37417888      -1.49785112      -0.33835473      -0.02606026       0.26416388
H       -3.90275045      -0.91099655       0.08757377      -0.26846830       0.16127585      -0.29427365
H       -1.64287825       0.65848150      -2.27166143       0.05681383      -0.14209787       0.39668225
H        0.75401720       1.03146736      -1.84202710      -0.09297297      -0.12876708       0.35348789
H        3.71105087      -0.70407784      -0.65786661      -0.33449285      -0.13527239       0.80253329
H        3.50184481      -1.24832905       0.94950571      -0.11284368       0.37723544      -0.75441998
H        0.22576235      -0.34278212       2.21666859       0.00115724       0.11610748      -0.36971987
H       -2.16914981      -0.71060857       1.77179629       0.15743342       0.11966155      -0.37639591
19
Properties=species:S:1:pos:R:3:momenta:R:3:forces:R:3 source=md-300K-step50 energy=-96.65047196340703 pbc="F F F"
N        3.41111570      -0.07405823      -0.56369446       0.14998425       0.42836311      -0.41124246       2.08595575       0.20028310      -0.29289007
C        2.07597464      -0.06787321      -0.37066563       0.24802759      -0.55762802      -0.87536746      -2.19098863       0.49798370       0.56866679
C        1.33551740       1.15351715      -0.48577021      -0.19369620       0.62483941       0.61320205      -0.61323045      -1.48534237      -0.60232695
C       -0.07154323       1.08923295      -0.52809413      -0.20137733       0.51832044       0.70552178       1.22866994       1.32278339       0.86902562
C       -0.69252003      -0.09391461      -0.21387670       0.14744693       0.07135542       0.13359402      -1.13024415       0.53507385      -0.60262801
S       -2.46099871      -0.13923532      -0.11626890      -0.79042252      -0.09900430       0.24962736      -1.23815090      -0.08233532      -0.54195387
O       -3.01741486      -1.58060548      -0.30023007      -0.16817522       0.25832019      -0.38513106       0.61247829       1.36066853       0.24529331
O       -3.01525059       1.01698123      -0.99587086       0.49489543       0.56827072       0.65523195       0.52252182      -0.98355240       0.73140025
N       -2.75251585       0.45314191       1.48962918       0.39484236       0.29527758      -0.10294614       0.54879448      -1.49701808      -0.72057761
C       -0.05390696      -1.26500426      -0.01257817      -0.33710186      -0.25303609      -0.94149605       2.94094582      -0.58305445       0.39089563
C        1.39380154      -1.26275617      -0.06998964      -0.65760903      -0.81562538      -0.21464865      -2.58054384       1.03165467      -0.25630679
H        4.10759996      -0.71017789      -0.18527758       0.12721889      -0.13959087      -0.31593081      -0.40821756      -0.24946689       0.02115646
H        3.84241139       0.48098133      -1.28774687       0.19857006      -0.24189288      -0.14277185       0.01531468       0.27527180      -0.00776502
H        1.88465479       2.06226095      -0.65005257      -0.01572601       0.10978050       0.13571075      -0.14317172       0.06674366      -0.02714276
H       -0.63360178       2.04295453      -0.60044170       0.20760273      -0.03058215       0.18501269       0.30847602      -1.02759523      -0.08600590
H       -3.67283808       0.12936066       1.66630898       0.00416431       0.36871133       0.03344259      -0.34933036      -0.06521360       0.26439201
H       -2.78783899       1.41452531       1.35448025       0.11513485      -0.33337265       0.27799622      -0.15682864       1.38824411       0.01633722
H       -0.64093027      -2.14460972       0.23439083       0.30029214      -0.21359677      -0.13065677       0.29434504       0.10258842      -0.12803572
H        1.96673950      -2.14231321      -0.01216304       0.18434462      -0.18932348      -0.12854225       0.25320442      -0.80771689       0.15846540
19
Properties=species:S:1:pos:R:3:momenta:R:3:forces:R:3 source=md-300K-step100 energy=-96.54821468907059 pbc="F F F"
N        3.42824914      -0.07373092      -0.63403450      -0.53133831      -0.68209278      -0.61595049       2.71357093       0.76270348      -1.42430632
C        2.11955873      -0.08331162      -0.44507339       0.61754009      -0.11661599      -0.07716258      -3.99902634      -0.40394693       0.53921938
C        1.33046999       1.08021071      -0.45771656       0.17828413      -0.12659667       0.17013037       0.26540809       0.02211448       0.45277053
C       -0.06108162       1.07043245      -0.25391746       0.07248451      -0.77634145       0.82782112       2.40775519      -0.35496242      -0.98973314
C       -0.71592624      -0.11235663      -0.19836380      -0.86513312       0.26447086       0.74218161      -1.75087369       0.52738076       0.55187215
S       -2.55680931      -0.12016636      -0.10831193      -0.06376717       0.75737791       0.55039643       1.39274214      -0.18747382       0.49058970
O       -3.01257872      -1.49186005      -0.33286676      -0.25325483      -0.45355527      -0.30698665      -0.25449442      -0.80546547      -0.11359047
O       -2.93129916       1.05750702      -0.87055587       0.11588783       1.11088065       0.08641747      -0.49230808       1.14899534      -1.06382349
N       -2.68497160       0.44222064       1.46903705       0.70015846      -0.66956037       0.12403699       0.44796442       1.96131144       1.15420173
C       -0.02914748      -1.26177391      -0.16972982       0.32093252       0.11274773      -1.00307628       1.97642795      -1.21982417      -0.21297366
C        1.38577257      -1.27317989      -0.27767533      -0.22647893      -0.09068200      -1.28712107       0.04433842      -1.23116735       0.41540636
H        3.86568946      -0.93927705      -0.86197866       0.06004194       0.15426353      -0.14727834       0.23345288      -0.72684363       0.21415148
H        3.79173268       0.54933643      -1.37027826      -0.06220518       0.22322119       0.21744100      -0.18160272       0.03808053       0.68856940
H        1.93012337       1.97223884      -0.54847176      -0.05670180      -0.00373098      -0.11242966      -0.49634512       0.29727340      -0.03620447
H       -0.58667209       1.95619008      -0.37861285      -0.02903369       0.00929695       0.20591896      -0.89694152       1.27613132       0.06097595
H       -3.65212761       0.53279973       1.76928206      -0.05674081       0.29202380       0.07891915       0.58949026      -0.11093863      -0.30165781
H       -2.22480986       1.39710174       1.55960268       0.07387131       0.16531178       0.04348834      -1.01175975      -1.93082856      -0.20703012
H       -0.60764165      -2.16172933      -0.08631110       0.03501866       0.02907715      -0.01351346       0.12692100      -0.31377406       0.00999514
H        1.99344372      -2.21742342      -0.17109434       0.17379469       0.16112475      -0.12663162      -1.11471963       1.25123429      -0.22843235
19
Properties=species:S:1:pos:R:3:momenta:R:3:forces:R:3 source=md-300K-step150 energy=-96.59970027390796 pbc="F F F"
N        3.42174169      -0.08912315      -0.76967074      -0.20176461       0.14849458      -0.66954970       1.26041065      -1.09716250      -0.56351450
C        2.08328444      -0.11009021      -0.53215421      -0.06938802      -0.05418192      -0.79525682      -3.10374643      -0.82165062       0.49818103
C        1.32675172       1.09360480      -0.36984019       0.45114279      -0.47717904       0.30001838       0.55859789      -0.96177921      -0.10415709
C       -0.05069405       1.07271774      -0.16756072       0.08576278       0.17585421       0.59444558       0.75004500       1.14163323      -0.06672052
C       -0.67176785      -0.14958153      -0.17711407      -0.14539408       0.08935031      -0.67002074      -2.48790247       0.38656631       0.10122607
S       -2.54916239      -0.06842979      -0.06890977       0.51847006       0.82920339       0.48625315       1.23798123       0.61046817      -0.04392641
O       -3.04781142      -1.46466665      -0.36542849       0.00134181       1.38991268       0.01786021       0.16407228       0.52590401       0.12324374
O       -2.92366104       1.19798412      -0.86155009       0.31151881      -0.37608448       0.73885078       0.24210756      -1.02506188       0.62534443
N       -2.58357283       0.40831641       1.60404993       0.26193587      -0.19556836       0.38640472      -0.40199627      -2.21684892      -1.04836955
C       -0.04618511      -1.36410639      -0.30889372      -0.23566861      -0.92430212      -0.34004646      -0.12339078       0.36041987      -0.11149417
C        1.32101960      -1.36087947      -0.47988600       0.05892673      -0.41630651      -1.03801510       0.42461259       2.75653614      -0.00287848
H        3.93822516      -0.92987674      -1.07868622      -0.27142216      -0.10802236      -0.08080598      -0.45603099       0.68896567       0.36464607
H        4.05107905       0.65859970      -0.52586970      -0.09245403       0.04737308       0.38500566      -0.04931156       0.27457580       0.02132632
H        1.89025281       1.99277135      -0.53801688      -0.00565742       0.08184186       0.21651200      -0.26577958       0.27023928       0.20327162
H       -0.61180615       2.04292192      -0.04106392      -0.30454156      -0.05746024      -0.05823653       0.64824105      -1.47221655      -0.26571023
H       -3.51968947       0.61334867       1.78301821       0.24562878       0.03090146       0.14680975      -1.26088205      -0.18040094       0.27230767
H       -2.17032708       1.25495943       1.72999029      -0.11276488      -0.07025973       0.15653002       1.49224642       2.13667329       0.18026068