8
Properties=species:S:1:pos:R:3:forces:R:3 source=etkdg-seed0 energy=-28.483402308255346 pbc="F F F"
C       -0.94395977       0.09917250       0.02158501      -0.48989804       0.27793604      -0.06282614
S        0.78636814      -0.28022867       0.04662387       0.46168627       0.88179348      -0.31472221
O        1.19622375      -0.47634281       1.42181259       0.33535047      -0.12738708       1.65365492
O        1.05866926      -1.26235325      -0.98239085       0.16721266      -1.08811743      -1.28500210
Cl       1.75923716       1.41420380      -0.56300180      -0.26666043      -0.00831781       0.01797604
H       -1.13318627       0.92572997       0.70876084      -0.10298999      -0.13015880      -0.14104285
H       -1.23075490       0.36821227      -0.99654120      -0.08346124      -0.01856210       0.20033204
H       -1.49259739      -0.78839380       0.34315155      -0.02123970       0.21281370      -0.06836971
8
Properties=species:S:1:pos:R:3:forces:R:3 source=etkdg-seed1 energy=-28.483402308255346 pbc="F F F"
C       -0.94395977       0.09917250       0.02158501      -0.48989804       0.27793604      -0.06282614
S        0.78636814      -0.28022867       0.04662387       0.46168627       0.88179348      -0.31472221
O        1.19622375      -0.47634281       1.42181259       0.33535047      -0.12738708       1.65365492
O        1.05866926      -1.26235325      -0.98239085       0.16721266      -1.08811743      -1.28500210
Cl       1.75923716       1.41420380      -0.56300180      -0.26666043      -0.00831781       0.01797604
H       -1.13318627       0.92572997       0.70876084      -0.10298999      -0.13015880      -0.14104285
H       -1.23075490       0.36821227      -0.99654120      -0.08346124      -0.01856210       0.20033204
H       -1.49259739      -0.78839380       0.34315155      -0.02123970       0.21281370      -0.06836971
8
Properties=species:S:1:pos:R:3:forces:R:3 source=etkdg-seed2 energy=-28.48340234988877 pbc="F F F"
C       -0.93365258       0.17172837       0.01280218      -0.46823286       0.30641085      -0.08972227
S        0.76355613      -0.33266832       0.07342100       0.52361068       0.80865046      -0.40209746
O        1.16977880      -0.42085111       1.46079070       0.33954532       0.01342535       1.65762589
O        0.95238379      -1.43034258      -0.85234432       0.07382791      -1.22048739      -1.16971594
Cl       1.85513609       1.21422625      -0.70426071      -0.26636332       0.01365171       0.01907649
H       -1.05433160       1.07466513       0.61393106      -0.11369990      -0.13544880      -0.12714395
H       -1.20852977       0.35863287      -1.02677647      -0.08283184       0.00788291       0.20129146
H       -1.54434085      -0.63539059       0.42243657      -0.00585598       0.20591492      -0.08931420
8
Properties=species:S:1:pos:R:3:forces:R:3 source=etkdg-seed3 energy=-28.483402237505743 pbc="F F F"
C       -0.94590879       0.07195207      -0.03795501      -0.49660947       0.27243602       0.01847039
S        0.79296679      -0.26509919      -0.00168620       0.43921813       0.93064563       0.17535454
O        1.21430088      -0.66128311      -1.32950504       0.34664680      -0.37308041      -1.61365469
O        1.08305455      -1.06974784       1.16706386       0.18622403      -0.87234676       1.43790242
Cl       1.72261541       1.52600792       0.34023003      -0.26629545      -0.01739331      -0.01684517
H       -1.47188380      -0.86753763      -0.21931629      -0.02658294       0.22025063       0.03463750
H       -1.24411924       0.48799174       0.92599298      -0.08198203      -0.05125915      -0.19516998
H       -1.15102580       0.77771603      -0.84482434      -0.10061907      -0.10925265       0.15930501
8
Properties=species:S:1:pos:R:3:forces:R:3 source=etkdg-seed4 energy=-28.483402386896252 pbc="F F F"
C       -0.94626884       0.04685209       0.06116727      -0.49892840       0.25904746       0.07175417
S        0.79512983      -0.24386818      -0.08587074       0.43062015       0.94140539       0.13446030
O        1.08598649      -0.62409711      -1.45277057       0.18620623      -0.35813807      -1.64326158
O        1.22638830      -1.04453206       1.04131193       0.35781776      -0.87203275       1.40525643
Cl       1.70821027       1.57018328       0.16852840      -0.26605407      -0.02442338       0.01086017
H       -1.15315844       0.45146699       1.05348658      -0.10051048      -0.05275166      -0.18588854
H       -1.25274575       0.74968217      -0.71556694      -0.08057476      -0.11244850       0.16823544
H       -1.46354185      -0.90568719      -0.07028593      -0.02857645       0.21934150       0.03858361
8
Properties=species:S:1:pos:R:3:forces:R:3 source=etkdg-seed5 energy=-28.4834025781923 pbc="F F F"
C       -0.94393358       0.09843438      -0.02571568      -0.48735187       0.25511219      -0.13629133
S        0.78413943      -0.26006360       0.12872034       0.47206496       0.79013331      -0.49256073
O        1.08047276      -1.44724153      -0.64612319       0.19765397      -1.34827850      -1.00314177
O        1.15758302      -0.14112471       1.52298737       0.29190645       0.24818440       1.64815675
Cl       1.77704974       1.25739885      -0.82030879      -0.26705969      -0.00493337       0.01246518
H       -1.50311197      -0.69605877       0.47256392      -0.01888635       0.19196721      -0.11492551
H       -1.14875235       1.05754292       0.45321383      -0.09963821      -0.15881408      -0.11084506
H       -1.20344706       0.13111246      -1.08533780      -0.08868927       0.02662884       0.19714245
8
Properties=species:S:1:pos:R:3:forces:R:3 source=etkdg-seed6 energy=-28.483401675862737 pbc="F F F"
C       -0.94695009       0.01325176       0.06686675      -0.51148503       0.24352111       0.01599158
S        0.80634614      -0.21756157      -0.03936022       0.38082386       0.96577155      -0.10963442
O        1.28785389      -0.69331569       1.24102854       0.41400293      -0.47998312       1.56890019
O        1.10707816      -0.90785087      -1.27655352       0.19304297      -0.74221617      -1.50834929
Cl       1.62330992       1.64643388      -0.25686369      -0.26428778      -0.03422167       0.02189444
H       -1.16786578       0.63904414       0.93335062      -0.09890986      -0.10186526      -0.16516675
H       -1.41368271      -0.96687388       0.18390244      -0.03993774       0.22038775      -0.01591190
H       -1.29608954       0.48687223      -0.85237093      -0.07324935      -0.07139419       0.19227616
8
Properties=species:S:1:pos:R:3:forces:R:3 source=etkdg-seed7 energy=-28.48340287969446 pbc="F F F"
C       -0.93677147      -0.15276454       0.02198485      -0.47940167      -0.27647795      -0.12211686
S        0.77448418       0.29934333       0.09820764       0.48592627      -0.73540057      -0.55930572
O        1.23554886       0.13375582       1.46114107       0.40203263      -0.31185985       1.61379306
O        0.95736649       1.53893569      -0.62812007       0.06201146       1.40568734      -0.93990519
Cl       1.79354774      -1.10774239      -0.98384500      -0.26571337      -0.01151476       0.02763360
H       -1.05871387      -1.14488135       0.46021803      -0.11477787       0.15794618      -0.09653284
H       -1.25603031      -0.14818559      -1.02169457      -0.07528020      -0.04156834       0.20010922
H       -1.50943161       0.58153904       0.59210806      -0.01479725      -0.18681205      -0.12367527
8
Properties=species:S:1:pos:R:3:forces:R:3 source=etkdg-seed8 energy=-28.483402495469686 pbc="F F F"
C       -0.94438411       0.04134157      -0.08826469      -0.50616046       0.25491206      -0.00111283
S        0.80072430      -0.23817180       0.03451947       0.39597141       0.93889235       0.22684604
O        1.30743778      -0.57815195      -1.27896482       0.44694098      -0.31044491      -1.60223077
O        1.05488476      -1.06890472       1.19334358       0.13823877      -0.91027838       1.41966987
Cl       1.64672235       1.57150016       0.48015911      -0.26420671      -0.02578173      -0.03210626
H       -1.30911537       0.41670161       0.86948792      -0.06937778      -0.04783428      -0.20084444
H       -1.12997811       0.76479262      -0.88412076      -0.10523636      -0.11750064       0.15018383
H       -1.42629159      -0.90910751      -0.32615979      -0.03616983       0.21803552       0.03959455
8
Properties=species:S:1:pos:R:3:forces:R:3 source=etkdg-seed9 energy=-28.48340247125155 pbc="F F F"
C       -0.94655970       0.00052670      -0.07338823      -0.50797104       0.22833316      -0.10490647
S        0.80313342      -0.19946433       0.11944688       0.39422452       0.93670432      -0.23861860
O        1.27995499      -1.10568147      -0.90475952       0.40973092      -1.01197258      -1.29277269
O        1.09209920      -0.40811352       1.52321014       0.18011475      -0.15933596       1.67493342
Cl       1.64594880       1.60948604      -0.33506364      -0.26471068      -0.03644434      -0.01001055
H       -1.15722627       0.27980007      -1.10723541      -0.10060349      -0.03517650       0.18994913
H       -1.29047304       0.77458252       0.61492482      -0.07393135      -0.13421542      -0.15478240
H       -1.42687739      -0.95113602       0.16286497      -0.03685363       0.21210731      -0.06379184
8
Properties=species:S:1:pos:R:3:momenta:R:3:forces:R:3 source=md-300K-step50 energy=-28.23916378205894 pbc="F F F"
C       -1.12385713       0.11257210       0.05437294      -0.61932452      -0.04526031      -0.20394192      -0.32574226      -1.40127104       0.19859347
S        0.72242582      -0.17743387       0.08011642      -0.67013413      -0.19942762       0.66867285       0.34360921      -1.40376379       0.96145299
O        1.31247452      -0.45681888       1.50899288       0.03388583       0.46562632      -0.22093429      -0.94769557       0.44684180      -1.56743876
O        1.06235826      -1.19009210      -1.02062218      -0.54323761       1.15642818       0.49147758      -0.49713210       0.42435818       0.56385467
Cl       1.83276521       1.34728247      -0.63795480       0.94535215      -0.19146916      -1.15875099      -0.09584428       0.48306017      -0.02587193
H       -1.35684080       1.05384794       0.51439473       0.33743756       0.00569102       0.13897865      -0.00893389       0.29756472       0.25726018
H       -1.56544528       0.14132097      -0.95443386       0.24450794      -0.21226648      -0.09304374       0.48101129      -0.04730392       0.30324943
H       -1.70314873      -0.71128377       0.60380713       0.08236164       0.04246133       0.25849818       1.05072759       1.20051389      -0.69110004
8
Properties=species:S:1:pos:R:3:momenta:R:3:forces:R:3 source=md-300K-step100 energy=-28.29200872855621 pbc="F F F"
C       -1.01392652       0.13368589       0.11942153      -0.72402077       0.14040498       0.05978161      -2.16226096       0.17470561      -0.25846632
S        0.70493765      -0.19843308       0.14090520       0.85028975       0.53805378      -0.54805035       1.52639684       0.55657413      -1.16266345
O        1.25195845      -0.36763873       1.48263606      -0.09669987       0.42861660       1.66676830       0.28649527      -0.07038413       1.19754982
O        0.94963770      -1.11347740      -1.00621260      -0.91712446      -0.58069363      -0.68842977      -0.15145122      -0.50360213      -0.26475709
Cl       1.86887521       1.35514831      -0.71799677       0.07168620       0.25112509      -0.82302906      -0.56845653      -0.18764246       0.39410269
H       -1.40092815       1.16035923       0.25933778       0.06342360       0.17881544       0.10674225       0.60929698      -0.34967642       0.23881703
H       -1.37601647      -0.14284959      -0.86293236       0.29827941      -0.23436387       0.04969484       0.11283639       0.00460918      -0.27449835
H       -1.56459570      -0.56913985       0.76026642       0.26960337       0.27503881       0.06036624       0.34714323       0.37541621       0.12991568
8
Properties=species:S:1:pos:R:3:momenta:R:3:forces:R:3 source=md-300K-step150 energy=-28.284528764260614 pbc="F F F"
C       -0.96040734       0.22606057       0.13757254       0.73708986       0.97089477       0.16935014      -0.57748792       1.99782344      -0.53153473
S        0.83864025      -0.18450156       0.11484471       1.81980215      -0.97294728      -0.00632010      -0.44050017      -1.08010830      -0.39264979
O        1.14688556      -0.29106774       1.59523640      -1.31325878       0.64567205      -1.03220040      -0.03004315       0.02974098      -0.66453769
O        0.79798600      -1.18678321      -1.04521262      -0.99952009       0.17372368       0.72355442       0.14991834       0.47179079       0.84586942
Cl       1.83093854       1.35755905      -0.75091365      -0.84687663       0.07638119      -0.23804109      -0.11903557       0.15984648       0.09757568
H       -1.09996630       1.32445467       0.07731494       0.07627678      -0.02943067       0.03109185       0.44396094      -0.52040569       0.19436251
H       -1.68706057      -0.09971430      -0.58935717       0.15690664      -0.10298314       0.03966148       0.47283163      -0.64431615      -1.07514876
H       -1.48246728      -0.08344482       0.99665965       0.18949435       0.21150177       0.19956543       0.10035590      -0.41437156       1.52606335
8
Properties=species:S:1:pos:R:3:momenta:R:3:forces:R:3 source=md-300K-step200 energy=-28.278408542040104 pbc="F F F"
C       -0.71346063       0.44632969       0.19339961       0.96026362       1.08226920      -0.58738066      -2.96502019      -0.21258629      -0.12088514
S        0.91912757      -0.23436909       0.07432264       1.04480325       0.24619881      -0.02960719       0.34329801      -0.46146532       0.64876167
O        1.00152579      -0.20607757       1.58548385      -0.26984635       0.29929950       0.91100999       0.77286983      -0.36882909      -0.16969747
O        0.65857462      -1.26044763      -0.98753352      -0.88008937      -1.52497297      -0.45586338       0.28425708      -0.07476628       0.12985638
Cl       1.76902550       1.37538982      -0.76427830      -0.75386988       0.30015570      -0.19891937       0.11851233       0.18869599      -0.06309565
H       -0.84710332       1.42250838      -0.19040664       0.11435736      -0.04824494       0.02751033       0.38665691       1.16827872      -0.08881980
H       -1.40462666      -0.10985426      -0.42806121      -0.23963669       0.18851079       0.11272239       0.25352194      -0.48532223      -0.44742956
H       -1.24904373       0.32722719       1.15044585      -0.15169919       0.40599811       0.10993893       0.80590409       0.24599448       0.11130956
8
Properties=species:S:1:pos:R:3:momenta:R:3:forces:R:3 source=md-300K-step250 energy=-28.36903777125296 pbc="F F F"
C       -0.66325868       0.71385604       0.06685450       1.63949254       0.68476068      -0.53601027      -1.62726542      -0.70452162       1.09910489
S        0.90557472      -0.28419352       0.10066482      -1.88975302      -0.34821092       0.31257673      -0.44711564       1.75460844       0.34582701
O        1.06474524      -0.18784661       1.58211156       0.84027978      -0.11560324      -0.71089195       0.28811485      -0.24565849       0.01512675
O        0.61115370      -1.33472454      -0.87308543       0.00318156       0.30168064       1.43044780      -0.03881041      -0.75422251      -0.57743620
Cl       1.73715344       1.39081363      -0.79633025      -0.23066968      -0.28680429      -0.41827064      -0.02688351      -0.49754181       0.19229032
H       -0.65164836       1.59438106      -0.56057525      -0.16025668       0.25576980      -0.13955034       0.33207578       0.34764227       0.11415252
H       -1.57148406       0.17351001      -0.26694263      -0.13864713       0.12393717       0.19255993       0.76115413      -0.20956360      -0.22450020
H       -1.00191994       0.88974999       1.13118622      -0.23508214       0.31065864      -0.23876760       0.75873020       0.30925730      -0.96456509
8
Properties=species:S:1:pos:R:3:momenta:R:3:forces:R:3 source=md-300K-step300 energy=-28.36929110299823 pbc="F F F"
C       -0.61827699       0.89767287      -0.07670890       0.21570890       0.22502245      -0.94670835      -0.75998222       0.79861795      -0.99224795
S        0.78773374      -0.17177686       0.12923738      -1.16791096       1.33043117      -0.09903800       0.50864869      -1.87293479       0.29432753
O        1.24570935      -0.24064211       1.59207605       1.28118233      -0.43490147       0.24858364      -0.40107284       0.12126766      -1.05179241
O        0.57767497      -1.42062334      -0.76968861      -0.21062238      -0.09213561       1.14504724       0.19488237       1.30553098       0.85174149
Cl       1.73494111       1.33429447      -0.81126156       0.32341807      -0.99267278      -0.29938545       0.46432811       0.04931096      -0.14253211
H       -0.37109051       1.52069658      -1.01557587      -0.22344415       0.19685978      -0.09837484      -0.64623371      -0.58327088       1.55604698
H       -1.55930023       0.34723958      -0.26921259      -0.21032839       0.53142474       0.27703835       0.55165154       0.11793199       0.05974840
H       -0.75355160       1.45669268       0.86778366      -0.17529910       0.13969302      -0.33245136       0.08777807       0.06354613      -0.57529193
8
Properties=species:S:1:pos:R:3:momenta:R:3:forces:R:3 source=md-300K-step350 energy=-28.315070518078386 pbc="F F F"
C       -0.73898297       1.03659161      -0.18888286       0.94776779      -0.35662656      -0.35144228       1.68570186      -1.67890044      -0.39685865
S        0.72170675      -0.11516298       0.17585076      -1.44697269       2.07323773       0.37564369      -1.19690066       1.27075802      -1.58064511
O        1.36303590      -0.27009878       1.46208981       0.55749235       0.13868730      -0.53739756       0.55262729       0.22125759       1.78880937
O        0.55686809      -1.36586311      -0.58394775      -0.34571603      -0.27666171       0.42089913      -0.33382075      -0.46655953      -0.68520912
Cl       1.78931282       1.28011404      -0.83800251       0.79695912      -0.85688943      -0.23527578       0.10906324      -0.04746566      -0.05931522
H       -0.73496509       1.27354148      -1.27745057      -0.13177312      -0.24339791       0.28477885       0.00609363       0.22477513       0.82980522
H       -1.60008510       0.42919098       0.01011804      -0.13316941       0.21903360       0.22681393      -0.57386773       0.01383146       0.19144667
H       -0.64173248       1.85765115       0.50527469      -0.40782548       0.18441610      -0.28675469      -0.24889688       0.46230343      -0.08803315
8
Properties=species:S:1:pos:R:3:momenta:R:3:forces:R:3 source=md-300K-step400 energy=-28.251602892475507 pbc="F F F"
C       -0.79717875       1.02168785      -0.20157683      -0.30625258      -0.46286249      -0.43184991       1.61561082      -1.28967784       2.39877707
S        0.65867665      -0.03952449       0.16706275       0.42675525      -0.38777121       0.61159046       0.46523856      -0.19247860       0.57822574
O        1.43252200      -0.17484377       1.47089991      -0.18441451       1.03015757      -0.48869349      -0.59967849       0.35923907      -0.32553877
O        0.43917364      -1.33911712      -0.53348214      -1.02640558       0.74232238       0.30460069      -0.21437698      -0.06885996      -0.34093152
Cl       1.87570753       1.22538768      -0.86043269       1.53526712      -0.61755960      -0.46548117      -0.03096497      -0.01450951      -0.11961528
H       -0.94125705       0.84891726      -1.20975364      -0.34959752       0.14656768       0.01365362      -0.58825365       0.20746358      -1.95052911
H       -1.61684308       0.61567947       0.40236863      -0.13272770       0.43618723       0.32428191       0.00362772       0.47675600      -0.09327236
H       -0.36710994       1.97847241       0.08470167      -0.12190219      -0.02663282       0.03165527      -0.65120302       0.52206726      -0.14711576
8
Properties=species:S:1:pos:R:3:momenta:R:3:forces:R:3 source=md-300K-step450 energy=-28.296211044397683 pbc="F F F"
C       -0.81059025       1.02839814      -0.17363225       0.84375492      -0.13233935       0.63540858       1.55339100      -2.02222759       0.28656929
S        0.67879411      -0.04570294       0.17130551      -0.06841993       0.32880529      -1.07473404       0.27569743       0.44562929       0.42138946
O        1.40401959       0.03148164       1.52199560      -0.34901143       1.37942896       1.14500964      -0.79913343      -0.06330485      -0.82902234
O        0.22818638      -1.28318766      -0.56820275      -1.50677824       0.34919496      -0.42105045       0.22848537       0.29683583       0.17712866
Cl       1.96220193       1.17282531      -0.88943020       0.89578529      -0.85399523      -0.39522009      -0.27368362      -0.21474974      -0.01907787
H       -1.22447123       0.43010013      -1.00154121      -0.04370010      -0.43638849      -0.05129849      -0.18351175       0.81101663      -0.10769224
H       -1.42002905       0.84806707       0.70689915       0.16675240       0.17080659       0.13228657      -0.24523490       0.66034121       0.10257625
H       -0.39833036       2.02284135      -0.37121580      -0.09379691       0.03402448      -0.06821268      -0.55601010       0.08645922      -0.03187121
8
Properties=species:S:1:pos:R:3:momenta:R:3:forces:R:3 source=md-300K-step500 energy=-28.247617931389495 pbc="F F F"
C       -0.75659165       1.00831759      -0.06543019      -0.63664992       0.41132656       0.31078716       0.26178902      -1.63524736       0.06158845
S        0.76033772      -0.05683519       0.16243860       1.27832042      -1.13202701      -0.45978370      -1.44125749      -0.21496592      -1.89076875
O        1.20599673       0.21813799       1.50763690      -1.69936197       1.05294908      -0.08938506       0.42032689       0.11674879       1.76180191
O        0.06899104      -1.17062290      -0.57847474      -0.22066922       1.09708306       0.52249388       0.57033222      -0.14202410       0.15635849
Cl       2.01593845       1.10995273      -0.92594462       0.87814258      -0.81426676      -0.75249453      -0.07454825      -0.07369123      -0.18881957
H       -1.55049887       0.31290312      -0.52584106       0.02914929      -0.09879748       0.20981852       1.12773372       1.32619618       0.43942811
H       -1.02966677       1.26320662       0.96595111       0.25765763       0.31402219       0.16227233      -0.08051391       0.38241493      -0.40723604
H       -0.30531160       1.79318449      -0.68532185      -0.03823284      -0.01111766       0.00085311      -0.78386219       0.24056870       0.06764740
8
Properties=species:S:1:pos:R:3:momenta:R:3:forces:R:3 source=md-300K-step550 energy=-28.241844037730786 pbc="F F F"
C       -0.70235386       1.11703366       0.05144445      -0.37377785       0.44318990       0.65134577       1.84379985       0.13238239       0.94615142
S        0.79591449      -0.04150402       0.13853036      -0.52631961       1.51769915       0.77543203      -1.89743197      -0.15787790      -0.13731268
O        0.97441709       0.35561664       1.59893201      -1.45128525       0.41951115       0.09350316       0.30611828      -0.50849791      -0.49090738
O        0.03335279      -1.19625409      -0.60436634       0.29984600      -0.74959042      -0.39762164       1.16341101       1.21201924       0.88543658
Cl       2.07369217       1.05198660      -0.99468243       0.73238693      -1.06045088      -1.32782687      -0.12031402      -0.09457210       0.01110677
H       -1.50407355       0.42183355       0.15743770       0.41356482       0.04736523       0.18180077      -0.88401258      -0.17316502      -0.41649765
H       -0.68536070       1.73472277       0.99279558       0.48680218       0.21608641      -0.10279345       0.01594382      -0.32342263      -1.12021438
H       -0.61913883       1.67845802      -0.88982712       0.27081728      -0.03450975       0.03303704      -0.42751439      -0.08686608       0.32223732
8
Properties=species:S:1:pos:R:3:momenta:R:3:forces:R:3 source=md-300K-step600 energy=-28.37167940798153 pbc="F F F"
C       -0.65004169       1.26447068       0.06689226      -1.04146682       2.02695851      -0.44259533       1.25141975       0.79140887      -0.24855367
S        0.68443361       0.02577860       0.15830232      -0.71095709       1.62180221       0.99187816       0.92341191       2.07151906       0.95618528
O        0.87109907       0.32429196       1.62012702       0.27108919      -0.90610538       0.14057760       0.45277561      -0.35980786      -0.07516903
O        0.23272361      -1.14348887      -0.54227684       1.37255535      -0.26422692       0.08878244      -0.62059540      -1.68292996      -0.96144740
Cl       2.09869085       0.96729811      -1.06345125      -0.20255443      -1.59174622      -0.55989769      -0.52912573      -0.25316205       0.47902585
H       -1.47104985       0.87175412       0.59069369       0.01824486      -0.18070414       0.21327608      -1.27036599      -0.58749034       0.12996138
H       -0.33180566       2.09542230       0.72082455       0.19679938       0.01048812      -0.47321636      -0.05024361      -0.03467695      -0.67774657
H       -0.84429801       1.53843110      -0.97875356      -0.04808663       0.06344542      -0.04966913      -0.15727654       0.05513923       0.39774416
8
Properties=species:S:1:pos:R:3:momenta:R:3:forces:R:3 source=md-300K-step650 energy=-28.32411724812971 pbc="F F F"
C       -0.67801205       1.47873232      -0.05403729      -0.18734763       0.82942331      -0.65549497      -0.90799694      -1.81650013       1.11214397
S        0.60438809       0.18665798       0.17479532      -1.37306802       1.19367804      -0.25452962       0.11902225      -0.78290347       1.21057281
O        0.95726779       0.18648742       1.68504051       0.67364985      -0.77067010       0.02743492      -0.30256506       0.20246066      -1.40751465
O        0.43141449      -1.16449560      -0.52178181       1.23735022       1.14048749       0.82542130      -0.33839661       0.67790418       0.38114377
Cl       2.04955926       0.85502796      -1.06796197      -0.93339968      -1.56402281       0.19223819       0.18191519       0.41736375      -0.01912549
H       -1.47187569       1.39428302       0.73679967      -0.03112815      -0.05873406       0.22982955       0.52009347      -0.43905941      -0.90557805
H       -0.35396846       2.44740587       0.15161727       0.29213134       0.08686900      -0.48036894       0.95852933       1.46780210      -0.24376068
H       -1.08039454       1.35236953      -1.04923886       0.18093810      -0.09603810       0.02680949      -0.23060163       0.27293232      -0.12788168
8
Properties=species:S:1:pos:R:3:momenta:R:3:forces:R:3 source=md-300K-step700 energy=-28.15136852536547 pbc="F F F"
C       -0.62636876       1.51090740      -0.23186481      -0.24587796       0.52608015      -0.55553050      -0.11327093       2.11754472       1.27494922
S        0.53150986       0.25306967       0.24094473      -0.64358584       0.08208722       0.04033913       0.42794514      -1.47067962      -1.82329472
O        1.02735889       0.16529073       1.60144191       0.70099007       0.50636852       0.92705766       0.42577217       0.42659053       1.72856999
O        0.49035650      -1.11325932      -0.43619081      -0.71319859      -0.65696715       0.16166893      -0.79136908       0.18156299       0.16125578
Cl       2.02066797       0.81178454      -1.05490914       0.33366816       0.24313154       0.00915496       0.22855902       0.60616817       0.01493853
H       -1.15227892       1.95230380       0.66822331       0.23279834      -0.03004868      -0.08267979       0.10091356      -1.06102783      -0.82983831
H       -0.11595296       2.46471968      -0.50339680       0.25143107       0.09150893      -0.51736527      -0.07207947      -0.88981089      -0.44805261
H       -1.29174822       1.15925287      -1.00745180      -0.05368193      -0.01962767      -0.06915449      -0.20647042       0.08965191      -0.07852786
8
Properties=species:S:1:pos:R:3:momenta:R:3:forces:R:3 source=md-300K-step750 energy=-28.29962970824069 pbc="F F F"
C       -0.56572185       1.53463516      -0.37229871       0.63255464      -0.22442465      -0.27955218       0.84659834       0.45084019      -1.45469022
S        0.56006068       0.19056867       0.24443939       1.21622208      -0.48477974       0.95894031       0.33618637       0.43679464      -0.38373367
O        1.05725490       0.30054641       1.66332461      -0.52948094       1.14994043      -1.36791679      -0.26541386       0.21382926      -0.40597819
O        0.29049701      -1.14226575      -0.39318513      -1.73616605      -0.00127781       0.33406703      -0.27102282       0.18278535       0.07200763
Cl       2.03587933       0.86098719      -1.04242582      -0.12519956       0.77496939       0.52084048      -0.17963312       0.00580867       0.28197008
H       -0.72897507       2.31929910       0.33967107       0.37093096      -0.17072334      -0.14466100      -0.58100936      -0.13781965       1.06898636
H       -0.15528647       2.26967117      -1.14946291       0.01948681      -0.28149549      -0.18629280      -0.17465807      -1.57372522       0.46534882
H       -1.47738895       1.06674552      -0.78410138       0.01752977      -0.03768805       0.08016407       0.28895252       0.42148675       0.35608919
8